LAMMPS data file via write_data, version 2 Aug 2023, timestep = 50000, units = metal

10348 atoms
1 atom types

645.9976236375321 718.1823763624716 xlo xhi
646.5307580496728 718.3582419503273 ylo yhi
646.5451434919362 718.3438565080639 zlo zhi

Masses

1 12.0107

Atoms # full

1 1 1 0 664.8187397813812 649.4413769403741 662.7443962047678 0 0 0
2 1 1 0 646.8095808594215 673.5943269479014 663.5374304621329 0 0 0
3 1 1 0 677.8927622130103 648.8088275296395 666.1624731293548 0 0 0
4 1 1 0 679.4162092311265 650.7101482483336 647.8059807849348 0 0 0
5 1 1 0 675.4201946325403 648.6336583298802 667.4031061299345 0 0 0
6 1 1 0 650.4095771524192 648.6563713609538 669.4399931965964 0 0 0
7 1 1 0 646.9544157791936 648.9095920255576 674.6608432889133 0 0 0
8 1 1 0 646.7053599922051 662.6807934957225 661.666822011799 0 0 0
9 1 1 0 647.3841441734288 650.2702054586777 677.0497205067568 0 0 0
10 1 1 0 671.9819591854716 677.1147936210472 649.473883770782 0 0 0
11 1 1 0 650.0999837343743 647.6392438664329 677.1495458848993 0 0 0
52 1 1 0 652.9656514794312 667.1763959319036 681.7033710171822 0 0 0
13 1 1 0 679.0434330103354 647.7452416419158 651.6420246576797 0 0 0
14 1 1 0 664.9231214246855 649.0650285902494 665.0711068173205 0 0 0
15 1 1 0 658.382566674611 675.7012272881693 647.4533656138537 0 0 0
16 1 1 0 678.7742015145142 671.1601693313754 681.407272467082 0 0 0
697 1 1 0 646.1000719038319 649.9808878238495 675.0158138277482 0 0 0
1295 1 1 0 646.2856439922773 670.2869363894575 668.7896746465409 0 0 0
19 1 1 0 647.1551508469594 647.6965274959398 656.9689901493479 0 0 0
20 1 1 0 648.3536867491088 648.3016891666582 657.4214056613597 0 0 0
21 1 1 0 652.4433130772622 662.829474447162 659.1188302450103 0 0 0
22 1 1 0 648.8119467233591 650.8225998630154 670.9061515918817 0 0 0
23 1 1 0 646.6473318574496 651.6532349462229 669.9843800546255 0 0 0
312 1 1 0 675.2080930140932 682.1031062036716 646.7504468629191 0 0 0
1352 1 1 0 681.7989948964405 660.8589005002099 664.7674615063281 0 0 0
1364 1 1 0 668.2817385860703 651.7334312805873 682.1625366372774 0 0 0
1119 1 1 0 646.288801705624 669.3519890317527 665.7739463844923 0 0 0
28 1 1 0 649.6317439958577 647.7053750172654 657.1251492891706 0 0 0
29 1 1 0 650.7183213958677 647.8729705920955 657.9005417066011 0 0 0
30 1 1 0 664.4095804581523 648.1748030436717 656.8564598720644 0 0 0
1033 1 1 0 679.1374332963655 682.2021248145326 679.1184675316204 0 0 0
32 1 1 0 650.1164237395393 662.0119285623272 658.192471493971 0 0 0
158 1 1 0 646.3020131065335 668.9810243236946 664.2911151785555 0 0 0
775 1 1 0 681.685274783451 668.411983564378 659.3820338270373 0 0 0
35 1 1 0 675.5347978688602 648.5839135134233 670.1326945176755 0 0 0
36 1 1 0 647.5681683401066 647.1724149156598 664.7888520633381 0 0 0
37 1 1 0 651.8717812291865 647.099682197835 657.7781845105975 0 0 0
38 1 1 0 647.6529330423131 672.5969742722439 669.0846126658402 0 0 0
39 1 1 0 647.0907206934064 670.3304284535182 666.3466876473939 0 0 0
2030 1 1 0 655.1321496245992 681.0172928439468 646.9230794227867 0 0 1
41 1 1 0 648.56478841859 671.4770932567061 675.0258710637945 0 0 0
42 1 1 0 648.8341635875606 647.4973314944237 675.0437563285228 0 0 0
43 1 1 0 669.4014990488159 649.308927530228 669.8282154433515 0 0 0
44 1 1 0 654.6250481206423 671.0795487154163 677.0461383088726 0 0 0
5523 1 1 0 646.1323102398828 682.3549401525192 676.054020945011 1 0 0
46 1 1 0 648.5348223734251 651.782854395353 659.5798533465826 0 0 0
47 1 1 0 646.9397884290476 670.7648514675454 667.6531993586059 0 0 0
48 1 1 0 650.6546124030597 649.1934734388735 661.2385613791625 0 0 0
49 1 1 0 674.9157919247824 668.8643527522 681.7286870558004 0 0 0
50 1 1 0 681.3653003234123 651.8160133580706 671.3995179933579 0 0 0
51 1 1 0 678.8602679411694 680.8060743562922 679.0498233813821 0 0 0
684 1 1 0 681.750408342763 673.3174150550788 660.5989306239176 0 0 0
53 1 1 0 675.1756123816903 667.8566711750086 678.3363816960004 0 0 0
54 1 1 0 669.318691728727 656.404439003302 680.3884042197129 0 0 0
55 1 1 0 674.9752804944566 658.6695735236957 647.0822274426231 0 0 0
56 1 1 0 659.3753794305718 668.8144822190445 676.789016389502 0 0 0
229 1 1 0 669.6163692806142 646.7176274733863 666.9982637973472 0 0 0
58 1 1 0 648.9668490167172 647.5582807367867 667.5496007547945 0 0 0
1118 1 1 0 647.1410232288322 681.9517301181706 671.1168218343371 0 0 0
1409 1 1 0 666.0522283652983 668.9813080805047 682.3461739125039 0 0 0
1353 1 1 0 646.1090160756775 678.6922838119912 666.9978212765214 0 0 0
62 1 1 0 647.5647227940713 672.8831223306394 666.7282461642262 0 0 0
63 1 1 0 647.8565557068341 672.2779517818196 671.5646269653042 0 0 0
64 1 1 0 670.1426732108772 676.1953902586905 647.885130031386 0 0 0
65 1 1 0 649.7023011772061 648.4740347037877 662.006604793789 0 0 0
66 1 1 0 647.9969761538873 648.5329132963572 675.4886314885852 0 0 0
67 1 1 0 680.2170661874395 651.5443161979289 669.0208440264082 0 0 0
68 1 1 0 647.5209162599714 665.7001979283666 660.7382099679426 0 0 0
239 1 1 0 646.3690814686654 674.2336020156249 664.7266301454538 0 0 0
1695 1 1 0 651.0850997942013 661.1824977380348 646.7169332203428 0 0 1
71 1 1 0 667.898223610277 649.0144944908407 671.5061590611775 0 0 0
72 1 1 0 680.9563424262917 652.6824886613582 669.0921951592139 0 0 0
73 1 1 0 666.4075986763883 650.9675822539433 668.51529491673 0 0 0
74 1 1 0 660.0064474896901 663.999402201853 674.8739055002071 0 0 0
75 1 1 0 667.2216267468997 650.2687658337483 671.0658178532003 0 0 0
1028 1 1 0 680.1325919919304 647.0064874489561 653.66071411523 0 0 0
77 1 1 0 653.5075135027766 669.1439451625201 678.5930760846701 0 0 0
78 1 1 0 668.2941728050332 648.5516946796279 667.9294557005355 0 0 0
79 1 1 0 649.525437260945 651.3687531986268 661.9417388287924 0 0 0
80 1 1 0 678.939900218116 649.0233395185791 652.2161953339665 0 0 0
81 1 1 0 653.3697159214344 671.5011179789905 677.5658350924023 0 0 0
82 1 1 0 666.2973972176277 647.4199166924199 655.5853626508328 0 0 0
83 1 1 0 647.5563315485741 653.9722026396538 660.4037553420662 0 0 0
84 1 1 0 649.5869649873985 648.4387026283607 670.5720493047073 0 0 0
85 1 1 0 650.5947791116099 648.7770753412733 658.978223503057 0 0 0
86 1 1 0 664.5088239079894 647.170538029582 663.6126053779086 0 0 0
87 1 1 0 647.9550629842031 666.9961809982473 661.2147414533769 0 0 0
88 1 1 0 648.813567387377 673.8346810780157 666.9618239042396 0 0 0
89 1 1 0 660.9667856788795 679.4264835896472 661.3566686341804 0 0 0
90 1 1 0 666.2660693325062 647.3198702255322 674.7235420409509 0 0 0
91 1 1 0 660.7931476639459 669.4831238100631 678.6268384002601 0 0 0
333 1 1 0 680.9478653239778 679.7987068004626 681.7030020162528 0 0 0
93 1 1 0 647.7466385027676 671.6882870770211 670.1443255910016 0 0 0
94 1 1 0 679.5171643718928 651.1620414242735 649.1517444451695 0 0 0
95 1 1 0 679.939619698432 652.526639393487 649.2433915429142 0 0 0
481 1 1 0 669.9986705432126 646.7736764879428 653.7050636380027 0 0 0
579 1 1 0 672.9632773746712 666.8462645462723 681.6432099145009 0 0 0
98 1 1 0 663.0533953982723 647.8486513483413 656.886590137764 0 0 0
45 1 1 0 652.4224003290492 658.5391879760481 682.0781632540819 0 0 0
100 1 1 0 679.0044979042625 659.3908441749445 647.8220891327891 0 0 0
101 1 1 0 647.2446009802458 648.7679499974712 673.2695953748408 0 0 0
102 1 1 0 648.8096207675268 678.8161292251422 665.6124702753463 0 0 0
1264 1 1 0 681.0953460129452 646.6143812199164 669.7636749364314 0 0 0
104 1 1 0 680.13419696018 655.2820614018267 649.0462901586487 0 0 0
5580 1 1 0 680.9657757211472 678.7837998202455 660.4347810170069 0 0 0
106 1 1 0 647.5830216189572 679.467672160022 664.9490807523081 0 0 0
107 1 1 0 680.352823777964 659.5653076690014 647.7829354618126 0 0 0
108 1 1 0 649.026449115326 652.6755291526541 661.7470083376066 0 0 0
109 1 1 0 680.1771701128916 656.6937461365011 648.9836581550851 0 0 0
110 1 1 0 678.9426198535874 657.3047890324144 649.2926185574414 0 0 0
111 1 1 0 681.3302137359016 657.1639141789902 648.2911763894303 0 0 0
112 1 1 0 671.968418826475 647.7985277673267 667.9099745575821 0 0 0
1259 1 1 0 646.4044591897389 679.8266920021217 667.7828083348555 0 0 0
114 1 1 0 666.9805792143231 656.2470017677383 680.6901931318215 0 0 0
1369 1 1 0 672.7873109446343 678.5523186345399 646.7133042204915 0 0 0
116 1 1 0 678.3429522359228 658.3817612429322 648.4695653728376 0 0 0
211 1 1 0 646.3470841197466 661.5717226184023 660.5883334130401 0 0 0
679 1 1 0 671.786991005009 646.9484291945464 669.3471772600161 0 0 0
1311 1 1 0 647.0725786269021 682.0159201276726 673.6557170023608 0 0 0
120 1 1 0 648.783744747192 677.5246846580005 666.323668963299 0 0 0
121 1 1 0 647.9702519556248 653.386359867257 662.5278459893843 0 0 0
709 1 1 0 669.4930010431311 647.1847973845021 671.1240062227783 0 0 0
123 1 1 0 661.0746244310266 669.2381134426734 680.0408508784602 0 0 0
1016 1 1 0 646.2231481241337 678.7756685075509 665.5648858906662 0 0 0
125 1 1 0 673.0884831927663 648.1595748867896 670.2532781185157 0 0 0
126 1 1 0 646.6121441322804 647.0058511962279 666.0408454494693 0 0 0
2542 1 1 0 666.4319529070344 674.6508339609326 646.7917969634553 0 0 1
2526 1 1 0 660.3618894838195 672.7419568678808 647.0688012262423 0 0 1
129 1 1 0 657.5716413307866 681.9305790602991 652.7676226674697 0 0 0
130 1 1 0 647.206887949531 652.548153565247 670.9100009571408 0 0 0
236 1 1 0 665.4058481342371 646.7853029428637 681.1652024138434 0 0 0
132 1 1 0 648.4131107186083 664.6917158717342 661.001280209901 0 0 0
1283 1 1 0 677.0393465270198 646.8452663790977 671.0243641533284 0 0 0
134 1 1 0 646.7678810996329 653.9799852481809 665.1107220652294 0 0 0
61 1 1 0 665.0225861635394 662.7690484925288 646.6420149412438 0 0 0
6434 1 1 0 681.9710884112993 647.8643762405926 664.3838483234598 0 0 0
137 1 1 0 651.2885330365781 647.7498132054526 679.3017174186882 0 0 0
138 1 1 0 650.4049675685594 662.8126523783646 660.3728986397207 0 0 0
139 1 1 0 664.4213396214626 662.4682086675315 652.0635806419695 0 0 0
140 1 1 0 668.0237775208952 659.4534711186927 647.8249075466617 0 0 0
141 1 1 0 668.2688827048453 658.8927931877852 649.0984150193643 0 0 0
142 1 1 0 664.7351240330177 661.5057352770829 651.1012839574306 0 0 0
143 1 1 0 666.3583431796226 660.1325588948266 650.0895560450692 0 0 0
144 1 1 0 667.2589242785722 659.097716394028 650.0627153144012 0 0 0
145 1 1 0 665.9738612077433 660.5988681351076 648.8442147489011 0 0 0
146 1 1 0 666.8961642903116 660.3354258477322 647.7182196305528 0 0 0
147 1 1 0 680.6641262990985 648.2403799505707 667.7411027107826 0 0 0
148 1 1 0 665.9656268666281 651.3856682165532 681.4587688938964 0 0 0
149 1 1 0 662.9706620356321 677.6299996267177 663.729605029082 0 0 0
1278 1 1 0 672.4451776655729 658.0779876540456 646.6312186528412 0 0 0
151 1 1 0 664.8437352742753 661.49025520955 648.7003100834447 0 0 0
152 1 1 0 665.017017218002 662.6552112771521 647.9534060618685 0 0 0
153 1 1 0 664.1626175125152 661.8017143664639 649.8748270651334 0 0 0
154 1 1 0 664.0727227637161 663.2373249636045 650.2604773370331 0 0 0
1296 1 1 0 681.046805164576 672.2598370339252 681.8671881124737 0 0 0
156 1 1 0 671.7432949775866 665.0472557422005 680.2752975482525 0 0 0
157 1 1 0 649.3074648749184 663.0069855367914 657.5847871453954 0 0 0
119 1 1 0 650.8881745410631 648.498185551795 681.918809392899 0 0 0
159 1 1 0 665.6265412381541 663.699838105823 648.6208687092426 0 0 0
160 1 1 0 666.8068489026122 664.1311394911139 648.0742360369549 0 0 0
161 1 1 0 665.1443266538699 663.9972567709093 649.8476071514773 0 0 0
162 1 1 0 665.5743905970687 665.1979791627289 650.3666833981847 0 0 0
163 1 1 0 663.4515948464361 663.6482629814981 651.7250616006202 0 0 0
164 1 1 0 662.1827125681563 663.327942217823 652.4556188919632 0 0 0
165 1 1 0 663.7902454946393 665.1460923788808 651.9176235567201 0 0 0
166 1 1 0 664.9485157814145 665.728949116346 651.4582891083235 0 0 0
167 1 1 0 648.595754834484 652.9741592233521 660.3890457104476 0 0 0
168 1 1 0 670.7748426562969 676.456079389129 649.1929520952858 0 0 0
169 1 1 0 661.1454848246876 664.2814964282479 652.1793019820109 0 0 0
170 1 1 0 661.5542691783505 665.5874138347688 652.6721677928351 0 0 0
171 1 1 0 662.8574107360336 666.0526277673943 652.3675105804529 0 0 0
172 1 1 0 663.3472559039981 667.0173159424135 653.3820167569977 0 0 0
173 1 1 0 666.588619079106 665.8725822563586 649.6902253145967 0 0 0
174 1 1 0 665.2531319674941 667.092167425262 651.893016102959 0 0 0
175 1 1 0 647.1081419787283 664.0980419702119 658.3326949441929 0 0 0
176 1 1 0 680.6162464253426 649.6878247318734 665.6587962841613 0 0 0
177 1 1 0 667.2782817956574 665.2891521427 648.604674434775 0 0 0
178 1 1 0 668.0301847469425 666.104526937313 647.7857202530829 0 0 0
179 1 1 0 666.7715880435022 667.2280654676597 650.0737582280647 0 0 0
180 1 1 0 677.9604209072124 648.6676402291409 669.6950228972896 0 0 0
181 1 1 0 665.9702084893132 648.7071369457693 667.2548138037453 0 0 0
6407 1 1 0 681.6766757254278 671.9097778853502 663.2179945141032 0 0 0
183 1 1 0 646.8181778230006 650.4680379032387 663.9684146427372 0 0 0
184 1 1 0 667.8717899624176 667.4714869294141 647.8743032601743 0 0 0
185 1 1 0 663.3143837370376 648.2987320198537 659.1627025792812 0 0 0
186 1 1 0 667.3553675714153 667.9969801986817 649.0670085687755 0 0 0
187 1 1 0 667.1573558961114 669.3622024792062 649.1268915638519 0 0 0
188 1 1 0 657.8303735516926 668.0870575979164 681.3075658419675 0 0 0
1003 1 1 0 678.0571511155553 647.3057140074426 670.1574456915063 0 0 0
190 1 1 0 647.4517993301333 650.057132558933 669.1805243176749 0 0 0
191 1 1 0 647.5574986920623 647.0122145001437 663.2586849792142 0 0 0
192 1 1 0 647.3693761410061 660.7428483924289 659.981992414134 0 0 0
193 1 1 0 647.5554683047854 675.3655627866566 666.5775534167243 0 0 0
194 1 1 0 664.4193306445284 649.1844369867754 659.0182971723129 0 0 0
195 1 1 0 666.2255002321795 667.8174003565196 651.1942045689952 0 0 0
196 1 1 0 664.4912742000207 667.7240962658108 652.904750481601 0 0 0
197 1 1 0 664.7103032169541 648.5353433674161 663.789967183038 0 0 0
198 1 1 0 664.6924371086116 669.0892062614348 653.118738170526 0 0 0
199 1 1 0 666.3813978524145 669.2007325416657 651.443187338042 0 0 0
200 1 1 0 666.960518780263 669.921981380065 650.3696315989101 0 0 0
201 1 1 0 665.7114141954625 669.8737650268845 652.4851575030832 0 0 0
202 1 1 0 666.1626650848069 671.2256519774154 652.7777104573358 0 0 0
203 1 1 0 666.9650358916621 671.3098457575662 650.415618408702 0 0 0
204 1 1 0 666.8278167374851 672.0147772715989 649.1600635494283 0 0 0
205 1 1 0 666.9614302870618 671.8956762434286 651.7405699274424 0 0 0
206 1 1 0 667.4262370906935 673.2309213872494 651.690820952377 0 0 0
207 1 1 0 648.0490337229407 663.3100232211204 661.2229757492546 0 0 0
2379 1 1 0 665.1705820366735 671.8700550349657 647.4787286824023 0 0 1
209 1 1 0 660.5365657345615 662.6702947945552 674.6261371891596 0 0 0
210 1 1 0 664.1226320631088 647.6889695272956 661.3522709580974 0 0 0
2233 1 1 0 669.8565809554931 654.6976951812914 682.1626630375346 0 0 0
212 1 1 0 648.8543610629041 647.0214134483754 673.7301739458765 0 0 0
76 1 1 0 649.6408693643727 646.7254883041784 656.1240772213959 0 0 0
214 1 1 0 661.7152342170045 662.6020841440825 675.5255459643228 0 0 0
6372 1 1 0 681.4980833692005 653.4844895288335 673.1093722561649 0 0 0
33 1 1 0 665.299103586875 646.7449520509078 665.8646805263975 0 0 0
217 1 1 0 661.9985767956337 669.6833274788955 681.1415871710961 0 0 0
1356 1 1 0 681.3254298845009 648.7265055482605 666.6608048677804 0 0 0
219 1 1 0 667.9590696825185 647.621708343295 680.2087457569504 0 0 0
220 1 1 0 647.0268662032419 649.2795447745964 668.1523113661872 0 0 0
2531 1 1 0 646.129736371861 665.3591707722458 647.1014487378511 0 0 1
222 1 1 0 651.9840218414223 666.2394279294039 681.1294958854241 0 0 0
226 1 1 0 646.663122125895 655.6208559185723 663.2731824444525 0 0 0
1290 1 1 0 673.3872790696739 646.8457463890805 670.645362012728 0 0 0
225 1 1 0 653.3348031069572 680.692206462267 648.4840944406403 0 0 0
420 1 1 0 673.2207864455263 681.4031380368094 648.4914678446654 0 0 0
227 1 1 0 647.0348894295083 647.5893198685332 670.4485348207711 0 0 0
228 1 1 0 647.0887677430844 674.4401480349993 670.4992640156404 0 0 0
889 1 1 0 660.1744381819256 646.7431028522586 658.0247120481419 0 0 0
230 1 1 0 673.7520803877777 667.1384575981555 680.5130844452095 0 0 0
231 1 1 0 652.4296996390915 680.1929708162038 647.5409478914105 0 0 0
232 1 1 0 647.705061175317 648.5262166421153 663.2833601189997 0 0 0
233 1 1 0 678.5781435004673 648.8524563567266 649.5249996780607 0 0 0
234 1 1 0 666.8708824538334 670.0228076603792 647.9066387803266 0 0 0
235 1 1 0 648.6528965718178 649.2557535362564 665.4052120656819 0 0 0
701 1 1 0 647.4641613356324 682.4055118229386 664.9506748167147 0 0 0
1332 1 1 0 651.7908346984777 646.9999935922641 680.3626241842712 0 0 0
238 1 1 0 648.5946367131426 650.8316688622897 669.5091112316181 0 0 0
2536 1 1 0 652.8815150558223 679.2780896412519 646.554013814937 0 0 1
240 1 1 0 648.5093795912236 663.9999921214174 658.1069876746315 0 0 0
241 1 1 0 649.3304811883305 651.2957931257528 680.1186694919728 0 0 0
242 1 1 0 672.8697853388416 667.0655121788207 677.6782865278641 0 0 0
243 1 1 0 666.5131557274852 649.2507917110182 673.2087479474021 0 0 0
244 1 1 0 669.5900127414193 653.5838011919897 681.269693746185 0 0 0
245 1 1 0 662.7697712532547 671.604216508135 647.7697765759966 0 0 0
246 1 1 0 671.5276256537552 648.3011964824774 670.2460648785608 0 0 0
247 1 1 0 664.9632300065972 649.2365781704949 657.6828202461559 0 0 0
248 1 1 0 653.1456475982607 670.1689513200611 675.5012419339225 0 0 0
249 1 1 0 666.5041239794168 650.525824812435 672.5510617512595 0 0 0
250 1 1 0 648.8651955370392 673.3450661372361 672.459958097574 0 0 0
251 1 1 0 649.5922599168719 679.7949637310294 666.3742750534313 0 0 0
252 1 1 0 647.9686988649138 673.9141983282783 671.4354852543402 0 0 0
253 1 1 0 649.2833191002883 665.0232849480983 658.8582706085111 0 0 0
254 1 1 0 658.5337713720951 668.6852569707772 679.0597322143134 0 0 0
255 1 1 0 669.520813035493 648.0515792116074 667.3886793290767 0 0 0
256 1 1 0 661.9548670498311 676.4898633982424 659.4726962235113 0 0 0
257 1 1 0 661.1473012851943 676.5361989378658 658.3505510606219 0 0 0
258 1 1 0 661.1317578339354 674.1187535377188 658.0979942055084 0 0 0
259 1 1 0 660.6842958313556 675.3872228665718 657.690191286591 0 0 0
260 1 1 0 660.8180824753283 672.984303691147 657.2869613471839 0 0 0
261 1 1 0 661.0251187124433 673.257318211132 655.8522149755576 0 0 0
262 1 1 0 661.6105436925399 670.6946414672248 654.8838521274771 0 0 0
263 1 1 0 661.0635346730414 671.9855521303075 654.8288828077197 0 0 0
264 1 1 0 662.5382755380617 670.19518999284 653.9230474139761 0 0 0
265 1 1 0 662.3715978150975 670.7998253656982 652.66040463612 0 0 0
266 1 1 0 663.424877622697 671.2240047683654 651.8413934531517 0 0 0
267 1 1 0 660.15494681529 675.5676236196354 656.3858340827152 0 0 0
268 1 1 0 659.8673264866918 676.8623911398813 655.9115275024637 0 0 0
269 1 1 0 660.2823043328152 674.5557976119937 655.4267990722129 0 0 0
270 1 1 0 660.3175977295936 674.8605931785784 654.0792952135628 0 0 0
271 1 1 0 660.8863543023659 672.4103354954926 653.4891351764725 0 0 0
272 1 1 0 661.2089849982254 673.9160207959892 653.2225320357519 0 0 0
273 1 1 0 661.1954920127042 671.5148150000841 652.437168116271 0 0 0
274 1 1 0 660.9440332885005 671.7995227244569 651.103178537979 0 0 0
275 1 1 0 663.1973900210653 671.2904889435864 650.4642695503964 0 0 0
276 1 1 0 661.8276357050727 671.3053583859712 650.0915540332547 0 0 0
277 1 1 0 664.047553597258 672.1739645574643 649.6899850614467 0 0 0
278 1 1 0 664.0319191809518 671.8089919560474 648.3049288158204 0 0 0
279 1 1 0 648.5738991191112 661.3763875077103 659.7854904490597 0 0 0
280 1 1 0 659.6548444981372 677.1022065735732 654.533651364472 0 0 0
281 1 1 0 659.8434236102817 676.0927640673549 653.6091346341175 0 0 0
282 1 1 0 659.6521586266051 676.3098963528122 652.2593459004477 0 0 0
283 1 1 0 660.5622512614923 674.1355811318589 651.718235040898 0 0 0
284 1 1 0 659.8845982845442 675.2861968136368 651.33960101681 0 0 0
285 1 1 0 660.4663099622524 673.0766423972708 650.8130210307844 0 0 0
286 1 1 0 660.1452414729822 673.2836644052867 649.4272063086952 0 0 0
287 1 1 0 661.6665930314742 671.6068175866343 648.7030231205908 0 0 0
288 1 1 0 660.5879591357957 672.4339294304656 648.3819663953424 0 0 0
1340 1 1 0 649.9134146801018 661.7687296444901 647.2869723751495 0 0 0
290 1 1 0 674.2126972147734 666.8435495900144 678.1794200306937 0 0 0
291 1 1 0 679.2333746887599 648.7686311699354 665.626841296235 0 0 0
292 1 1 0 667.4398352602741 648.4055920954829 672.6334675529206 0 0 0
293 1 1 0 667.4336978861912 657.5169009302372 680.9110336714481 0 0 0
294 1 1 0 665.8603490639393 648.6921719736556 674.3191802653614 0 0 0
295 1 1 0 659.2668952531458 677.53936090007 651.8237263936551 0 0 0
296 1 1 0 658.7454361309065 677.6787372853356 650.5323433458321 0 0 0
297 1 1 0 659.2893807734056 675.4241452965654 650.1024526951787 0 0 0
298 1 1 0 658.755400817707 676.5944447060211 649.6520761962851 0 0 0
299 1 1 0 659.5038893221209 674.4361661254786 649.1150469683362 0 0 0
300 1 1 0 659.1066403920519 674.5470587756678 647.8043851326581 0 0 0
913 1 1 0 668.4787650696073 665.5216884599834 646.5734263755211 0 0 0
302 1 1 0 649.4624914608418 673.3858470380907 673.5785779133913 0 0 0
1315 1 1 0 652.6641985441838 682.3018061579613 662.982451486748 0 0 0
304 1 1 0 646.7498243891833 681.5265942210993 662.5374146925695 0 0 0
305 1 1 0 647.0409862294317 653.6701403902623 666.4493176800777 0 0 0
306 1 1 0 651.1232568067213 648.4054953442012 660.2127197399428 0 0 0
686 1 1 0 646.0145425943097 652.0182305651703 668.8796987069748 0 0 0
308 1 1 0 657.5723573349123 679.0049953200686 648.8591525123026 0 0 0
309 1 1 0 658.3040994577033 676.7399136237798 648.3636392696942 0 0 0
310 1 1 0 657.6565965678348 677.9177788604942 648.0023478240727 0 0 0
6024 1 1 0 681.7215967618389 662.9992511782383 672.6896617854347 0 0 0
1345 1 1 0 667.3463650711973 665.6418528287456 681.4971189279428 0 0 0
313 1 1 0 667.0553183997858 647.8350166050529 667.7302498671775 0 0 0
314 1 1 0 658.598378735396 681.7006863238872 655.3788403438448 0 0 0
5526 1 1 0 681.7241007062329 653.7028673610687 665.8298555434664 0 0 0
316 1 1 0 651.6886913323361 646.878346406619 660.3620592883052 0 0 0
317 1 1 0 666.0712608105202 651.5582857201665 673.4691724117451 0 0 0
1359 1 1 0 673.3417529658415 646.5975420711366 650.8875448218465 0 0 0
319 1 1 0 667.328691053307 664.9878770236919 680.1287949484238 0 0 0
320 1 1 0 649.9196743600454 672.0202013542956 674.4715555961936 0 0 0
133 1 1 0 682.03672437824 662.9542926413096 651.3876277730335 0 0 0
868 1 1 0 681.8520348399828 663.7963503227163 660.8887304846065 0 0 0
323 1 1 0 656.6196541349325 680.2289151657591 661.9861397676386 0 0 0
324 1 1 0 647.3829701862625 659.3560258540199 660.0354687265418 0 0 0
896 1 1 0 680.9144258891424 663.1577651880501 671.4749147217444 0 0 0
1334 1 1 0 656.9919789309754 677.9017631449866 646.8229464032515 0 0 0
327 1 1 0 667.2498397485309 650.3674559754389 669.5555610342017 0 0 0
328 1 1 0 647.5329444261977 674.0254000004858 669.138990231148 0 0 0
329 1 1 0 649.6229142181704 649.7904449513802 658.870966977594 0 0 0
330 1 1 0 654.6395635499651 668.1137966328147 676.6311276277805 0 0 0
331 1 1 0 653.3879312623013 668.4637712364478 677.1817005926533 0 0 0
332 1 1 0 650.5668879133555 673.5919365405764 676.4040479358204 0 0 0
2637 1 1 0 659.456871488352 673.7152416853712 646.7647220111617 0 0 1
334 1 1 0 674.2105506353307 648.5462041594905 668.1483216687419 0 0 0
335 1 1 0 678.5657226963036 650.3225870891733 668.0066402570029 0 0 0
1306 1 1 0 665.6344526182756 682.1289345351666 669.5810440245764 0 0 0
1300 1 1 0 674.4083660013061 668.399046968902 680.4799485218088 0 0 0
338 1 1 0 654.0723190179857 667.7126919529601 680.95070384023 0 0 0
339 1 1 0 660.5581615402176 661.8248587213851 673.5307168382802 0 0 0
340 1 1 0 650.9445515631825 671.0226076754537 674.9785957578607 0 0 0
341 1 1 0 650.297837358421 670.0777618855236 675.8238984813381 0 0 0
342 1 1 0 649.1217565066635 671.2455747699933 677.5046182481616 0 0 0
343 1 1 0 651.3070647568637 670.4175763138727 678.0881359261243 0 0 0
344 1 1 0 668.3343300838646 649.5952560556211 668.9675944314097 0 0 0
894 1 1 0 681.3010622772825 662.3974409989468 670.35231092643 0 0 0
1549 1 1 0 669.5234905409546 652.3362966661173 681.9087662427397 0 0 0
347 1 1 0 654.5032700701693 670.3200694365387 675.8710604813704 0 0 0
348 1 1 0 652.4858407975835 669.1329858614934 676.3140095158943 0 0 0
349 1 1 0 649.0387058037636 670.6270621042635 676.1872772767307 0 0 0
350 1 1 0 651.1275095246062 672.5923664628692 677.1932726010184 0 0 0
351 1 1 0 664.9039231787083 649.6971063502871 660.2927425222852 0 0 0
352 1 1 0 679.8016849744636 648.2111061408242 654.2498003007609 0 0 0
353 1 1 0 652.3158599659705 671.3086879699475 675.4479915437339 0 0 0
354 1 1 0 651.1973529150404 669.524637622703 676.8516872787072 0 0 0
355 1 1 0 650.4423463138769 671.5816440790807 677.9220688605259 0 0 0
356 1 1 0 652.7149942065699 670.5363822720054 678.4198965183975 0 0 0
357 1 1 0 651.9712026080332 647.4077447907604 681.8814461260333 0 0 0
358 1 1 0 646.6151422463854 651.5124111613363 665.0409135325496 0 0 0
359 1 1 0 664.1474806891174 674.5802968385389 652.4952907148311 0 0 0
360 1 1 0 664.1810913451421 673.4881361223834 651.6100736779509 0 0 0
361 1 1 0 664.5530822931718 673.3677348941866 650.3013124406394 0 0 0
362 1 1 0 666.9571274645757 674.2893024448031 650.8562773579013 0 0 0
363 1 1 0 665.7635669105707 673.9265134551165 650.0590933608323 0 0 0
364 1 1 0 649.8534214055192 647.0658829206117 675.8886159544467 0 0 0
365 1 1 0 647.0602142962565 674.0571478028259 665.9081289086874 0 0 0
366 1 1 0 650.593566586557 649.4526514682336 680.9611859695051 0 0 0
367 1 1 0 649.2938121385832 660.9119108740134 658.7361273779135 0 0 0
368 1 1 0 648.097702207288 677.7790029470045 667.6597401256453 0 0 0
369 1 1 0 661.2845587265169 678.6852301514239 660.1214434578768 0 0 0
370 1 1 0 661.6439201126672 677.3854841381503 660.5010689134582 0 0 0
371 1 1 0 660.8323859237241 678.9293119102567 658.8507646912601 0 0 0
372 1 1 0 660.6839435280992 677.8217252719454 657.9521476447306 0 0 0
373 1 1 0 660.0975563521306 678.0173765926104 656.7034336268442 0 0 0
374 1 1 0 659.2767917659187 678.3668881410717 654.104428268093 0 0 0
375 1 1 0 659.014929822219 678.5489648947981 652.7408294457471 0 0 0
376 1 1 0 658.0619883579587 678.8470180429617 650.1335806402425 0 0 0
377 1 1 0 656.150087270285 680.0735402104008 647.2529528601507 0 0 0
378 1 1 0 660.2540246221995 680.1746791826838 658.4902295111964 0 0 0
379 1 1 0 659.1607321715511 681.5717172901237 656.7953954311264 0 0 0
380 1 1 0 668.2554330157698 657.9772324565031 678.74112762193 0 0 0
381 1 1 0 666.899635678996 669.7484606332308 681.4575577827792 0 0 0
382 1 1 0 659.9122599805365 680.3110637248686 657.1663314863366 0 0 0
383 1 1 0 659.7974359467478 679.2742204459566 656.2850222985412 0 0 0
384 1 1 0 659.3920229832769 679.5042903143647 654.9507602657286 0 0 0
1326 1 1 0 648.2967107837932 681.3413781832329 667.5450310449496 0 0 0
386 1 1 0 658.8520736078622 680.6856069208179 654.4704811940367 0 0 0
387 1 1 0 658.4186756014354 680.8865756342958 653.166763177914 0 0 0
388 1 1 0 658.561459161378 679.8119764024015 652.3100061304146 0 0 0
389 1 1 0 647.3313898811119 650.9535621696277 662.7999511645326 0 0 0
390 1 1 0 670.9446637310211 647.8081820141405 672.8973990042109 0 0 0
674 1 1 0 672.2777791525089 679.7901892916284 646.8287955535549 0 0 0
392 1 1 0 657.9549923811765 679.8691090216666 651.0329780770164 0 0 0
393 1 1 0 657.1749589180415 680.9378613031711 650.6806572687635 0 0 0
394 1 1 0 665.5955647165905 680.2664951833755 672.719107440774 0 0 0
395 1 1 0 670.059138274284 667.1471413282918 678.0253580881035 0 0 0
396 1 1 0 670.7042146539561 665.9078283675651 677.6717147114276 0 0 0
1349 1 1 0 680.6644140232149 678.559538289258 681.224027212962 0 0 0
398 1 1 0 671.9571101557818 665.8521871070936 681.4330888144439 0 0 0
399 1 1 0 654.9974886349341 669.678041535406 678.969094208244 0 0 0
400 1 1 0 656.4903117639335 680.9949273352893 649.4835891110631 0 0 0
401 1 1 0 655.5183375847316 681.9536259966407 649.2653275624028 0 0 0
402 1 1 0 656.7482089322166 680.0560352685416 648.493379157485 0 0 0
403 1 1 0 647.1945814748664 651.1935191432183 659.4958587166783 0 0 0
404 1 1 0 646.8890081582783 652.1861462287682 662.0693605760019 0 0 0
405 1 1 0 648.7523424626416 649.2213126533798 662.6795971436056 0 0 0
406 1 1 0 654.5387172322393 681.6966597657765 648.148067907452 0 0 0
237 1 1 0 678.5923511298554 649.6877863590997 647.3014067802015 0 0 0
6098 1 1 0 681.6804167471142 674.5401279208638 682.3475216666533 0 0 0
409 1 1 0 666.8556053875471 666.0431277393802 679.0745482062537 0 0 0
410 1 1 0 648.1294837267202 651.7903088252694 671.7166813123932 0 0 0
411 1 1 0 647.1727053202227 679.5686841202055 669.0258066444195 0 0 0
412 1 1 0 677.1311271273422 669.4728355490895 680.3747001597976 0 0 0
131 1 1 0 646.1939322218229 653.4925521674976 671.1647193706356 0 0 0
532 1 1 0 646.4081725404392 678.8825641193306 662.8276684161716 0 0 0
415 1 1 0 674.2159888743374 648.7118784994158 669.5347557217611 0 0 0
416 1 1 0 649.5498466905235 664.8944515143213 660.1986582784835 0 0 0
417 1 1 0 667.6892298825538 679.4451103437019 667.2909164923328 0 0 0
418 1 1 0 680.2950506035145 651.8465724377348 666.8340694733428 0 0 0
683 1 1 0 681.9335354878174 671.9567068933605 660.3117508563324 0 0 0
99 1 1 0 680.128160511638 646.9419023573504 667.7192699196979 0 0 0
421 1 1 0 668.9562101022937 648.5279163822128 670.8553357181867 0 0 0
325 1 1 0 652.7740211507362 657.210778173613 682.1449601400561 0 0 0
423 1 1 0 666.6918086651984 678.8782208028827 666.5535860316952 0 0 0
424 1 1 0 655.3155575952932 669.1231881084975 675.9155134890852 0 0 0
425 1 1 0 665.6661778463146 648.9990465314759 680.3039689740199 0 0 0
426 1 1 0 652.4289397055005 672.0789965207033 676.668568537519 0 0 0
427 1 1 0 670.7723935177863 648.5575920890973 667.9487167796175 0 0 0