LAMMPS data file via write_data, version 2 Aug 2023, timestep = 50000, units = metal

43760 atoms
1 atom types

622.5068949641303 750.181104035882 xlo xhi
622.6216613517964 750.7753376482061 ylo yhi
622.5790387295201 750.8179602704824 zlo zhi

Masses

1 12.0107

Atoms # full

2898 1 1 0 674.2732821567402 686.1010377054284 642.6956461002353 0 0 0
2 1 1 0 657.406035162437 631.301520986506 678.2518985470521 0 0 0
16655 1 1 0 655.2831206035335 623.5274076990164 655.1310674104819 0 1 0
4 1 1 0 627.9996168394473 640.607483166786 651.4667274797737 0 0 0
5 1 1 0 669.3943789301001 634.6894640921431 624.827642527904 0 0 0
6 1 1 0 685.4120649984837 631.9594029707088 656.0883527733707 0 0 0
7 1 1 0 626.5667170988983 679.7489694850207 679.5486461725861 0 0 0
8 1 1 0 661.303904448067 633.1385199359102 684.0156306241068 0 0 0
9 1 1 0 657.1954697317333 630.6121135752085 679.6158085248954 0 0 0
10 1 1 0 660.2221657295602 633.2004113229541 677.4743324422916 0 0 0
11 1 1 0 659.7877098426596 634.932699893753 682.5775728175971 0 0 0
12 1 1 0 678.6737812401562 654.5798610861373 683.964265220129 0 0 0
13 1 1 0 653.9014939370486 631.039836395189 631.7969495244257 0 0 0
14 1 1 0 682.3588987420134 629.5356286940768 678.6475794163468 0 0 0
15 1 1 0 629.3717523383841 672.8165299698104 630.1354986647099 0 0 0
16 1 1 0 636.5405556246741 682.2105407210912 645.6495718199624 0 0 0
217 1 1 0 622.7250035517278 623.4912505398971 656.048147776005 0 0 0
18 1 1 0 653.3061179256325 629.0990336550539 633.7452422181665 0 0 0
19 1 1 0 629.6280801508104 675.0242557385959 639.1671409667746 0 0 0
20 1 1 0 653.9258550705871 627.7896574539864 634.2804564450776 0 0 0
10811 1 1 0 629.4251645776509 663.5968159205894 622.725178577045 0 0 1
22 1 1 0 667.7984126075186 684.0149223622085 654.4020018219252 0 0 0
9673 1 1 0 646.4566787029664 683.1911906780558 623.1481788184911 0 0 1
24 1 1 0 685.0013973400255 645.3316150307131 665.8151022514644 0 0 0
25 1 1 0 684.3711667913512 645.7546770549313 655.6598062711312 0 0 0
26 1 1 0 629.0887942842267 676.87458034598 631.3833541069743 0 0 0
5051 1 1 0 682.9035190348972 681.6533120435885 623.3322312224838 0 0 0
1531 1 1 0 686.0801383030396 642.9525132072467 623.6201565390828 0 0 0
29 1 1 0 627.8502067715586 672.3932985755287 641.378910768061 0 0 0
30 1 1 0 637.5927547203146 679.199603905935 630.5030290891254 0 0 0
31 1 1 0 656.9754820010772 631.4759899154325 680.6895771377298 0 0 0
32 1 1 0 655.0124258431879 631.4655981351051 631.0401604261524 0 0 0
28343 1 1 0 623.6835410859325 655.713257126677 648.614564683346 1 0 0
34 1 1 0 683.3178658731681 628.8756529897987 677.7928799613953 0 0 0
35 1 1 0 625.5243506759335 627.0119845663228 667.2018209386592 0 0 0
36 1 1 0 661.4652910913009 631.9152924623228 683.3817554020362 0 0 0
37 1 1 0 628.1450735894545 678.6679334709154 633.8857435031051 0 0 0
38 1 1 0 630.6965781947549 624.5243476262514 669.4206088613912 0 0 0
39 1 1 0 638.8069796682395 679.8402358697202 651.1485642605655 0 0 0
40 1 1 0 660.9079386538746 636.6920927621628 683.7459933215438 0 0 0
41 1 1 0 628.2382375522883 640.6382605414149 652.8201285292539 0 0 0
8840 1 1 0 641.0618381044525 673.2481100331979 624.2760111519035 0 0 1
43 1 1 0 626.3050560047291 635.8520841837217 651.9983758871996 0 0 0
44 1 1 0 658.9105855998563 627.7130097768332 678.5596235412776 0 0 0
45 1 1 0 682.945493007455 630.7124950799525 679.2340367051061 0 0 0
46 1 1 0 627.0358118471254 671.304808169183 630.0951500752242 0 0 0
5381 1 1 0 655.9444207184467 685.7574886978243 670.7078349441682 0 0 0
48 1 1 0 659.0913322152998 685.3498613301599 661.1576740363876 0 0 0
49 1 1 0 654.9782715046097 624.3913884546101 676.5647589652218 0 0 0
50 1 1 0 678.9345361858861 681.3631857871825 623.8262935236307 0 0 0
51 1 1 0 628.3223540443307 624.7698169391867 665.3104477129931 0 0 0
5893 1 1 0 655.0578624723742 684.7676551464766 623.7220400290711 0 0 1
53 1 1 0 681.9577648127502 684.4063530422442 625.567695749556 0 0 0
54 1 1 0 630.0656663536977 628.9176249260996 631.5563568289965 0 0 0
11426 1 1 0 636.7602884112426 679.1261828540088 626.4153654454659 0 0 1
9101 1 1 0 626.0448400251098 656.9434964595484 623.7116326985606 0 0 1
57 1 1 0 666.2484207927683 627.3650684869905 643.6789980393183 0 0 0
58 1 1 0 623.7660306361228 624.1211330442173 630.8338817828576 0 0 0
59 1 1 0 624.8638141912467 674.141536373503 678.5189949538992 0 0 0
60 1 1 0 664.4600465791088 681.9957506149228 663.5604663903836 0 0 0
61 1 1 0 630.849321352904 674.3037024306742 629.0776523710557 0 0 0
62 1 1 0 654.5773992336166 624.2461323759425 631.2626902054288 0 0 0
63 1 1 0 625.7825891253958 683.4487268532401 640.3416678990959 0 0 0
64 1 1 0 684.6619523040733 625.060301542705 683.6783850602305 0 0 0
65 1 1 0 623.386861455935 624.2158531522562 636.4048838292086 0 0 0
66 1 1 0 623.0838115710587 625.5548578778231 636.9348774597299 0 0 0
67 1 1 0 628.2520663177829 625.1255613641002 659.3812694168837 0 0 0
68 1 1 0 666.8344186908367 633.0819050000018 639.6996117933403 0 0 0
69 1 1 0 662.0680313809206 625.5278939089002 642.863465040983 0 0 0
42 1 1 0 623.4244785574357 669.0076397982034 629.1225849817216 0 0 0
71 1 1 0 652.1565816737472 685.215154010628 670.5228721392969 0 0 0
868 1 1 0 646.3185535174975 686.6917886569158 670.0808896415284 0 0 0
14092 1 1 0 653.055706604321 623.3567227835928 656.6758817954841 0 1 0
74 1 1 0 685.0344912030615 627.779456759264 656.0933372202624 0 0 0
8689 1 1 0 625.1196667920892 675.4559440527573 623.261841688289 0 0 1
3939 1 1 0 623.7553946770895 663.8820815487283 641.0811546941096 0 0 0
77 1 1 0 630.5306119235148 623.598376334679 629.8258001804561 0 0 0
16634 1 1 0 658.7791619671173 623.0787151661617 640.9220001614025 0 1 0
79 1 1 0 623.8790746137676 626.6534598340617 636.3187905688269 0 0 0
80 1 1 0 624.8020926754925 627.6838252900674 636.6285527943727 0 0 0
81 1 1 0 622.9804394450792 626.9410873869714 659.6465644203898 0 0 0
82 1 1 0 656.9757171631356 632.9143212364007 680.457595839468 0 0 0
83 1 1 0 626.9541885250089 639.5321863983135 650.8066160976445 0 0 0
84 1 1 0 632.1886510830258 623.1591819263621 664.3937918514619 0 0 0
85 1 1 0 628.0529979141611 628.0870666315167 663.9564384410858 0 0 0
86 1 1 0 626.4060619657598 672.8584339336834 625.6827635301004 0 0 0
87 1 1 0 676.9471539209578 683.0425083757846 630.4377830560476 0 0 0
88 1 1 0 626.7463399281893 677.3669279993214 675.7901411376894 0 0 0
89 1 1 0 638.8299308910761 624.2367302176543 667.4268142611177 0 0 0
90 1 1 0 625.1328777177822 675.5480524885324 677.069563684239 0 0 0
91 1 1 0 657.9702739692086 629.3675374595936 677.2549161548186 0 0 0
16656 1 1 0 656.9996769148177 624.541357315244 637.5623588617767 0 1 0
93 1 1 0 658.8358836543327 629.0048951725648 676.239642429782 0 0 0
94 1 1 0 675.8659353895591 684.0580610110327 629.7379445396283 0 0 0
95 1 1 0 626.6968141797985 679.1579371871917 627.822701724919 0 0 0
96 1 1 0 683.3201161206977 623.6362179200771 681.3651609658793 0 0 0
97 1 1 0 635.1999113444631 624.6572815974421 668.3240515153781 0 0 0
98 1 1 0 631.6397063992679 625.1639612227098 667.6965138447963 0 0 0
99 1 1 0 646.0641128690451 653.6176113508837 683.6950224429545 0 0 0
100 1 1 0 629.4598479668855 622.9604589737296 666.169037240948 0 0 0
101 1 1 0 633.8707624775506 626.2235231966449 670.3320947148245 0 0 0
102 1 1 0 624.6709980324132 675.9086462829733 627.6101132513286 0 0 0
103 1 1 0 630.1573925643835 675.7958158143256 633.2655477396185 0 0 0
104 1 1 0 684.3896308969566 645.2503566305278 656.956260491453 0 0 0
105 1 1 0 632.9045456983959 684.5879568431237 645.5991084295979 0 0 0
106 1 1 0 680.2666471653521 628.9455623422848 681.996451545509 0 0 0
2988 1 1 0 625.0524203450585 622.7792952962949 635.0725528266637 0 0 0
108 1 1 0 659.6780720728127 632.0966969807565 681.6733170020501 0 0 0
109 1 1 0 661.4903699867846 629.0616509585535 632.2641855010993 0 0 0
110 1 1 0 665.7529446589092 623.6724539910422 647.7176508374298 0 0 0
111 1 1 0 631.9803975201808 624.3663904540965 670.2709190625314 0 0 0
404 1 1 0 671.8968908409826 683.106018698364 623.5743289722577 0 0 0
113 1 1 0 634.7739323801841 626.0154282782958 672.7343488618435 0 0 0
114 1 1 0 633.2062698375076 623.4840214276928 670.7231895358472 0 0 0
115 1 1 0 658.7620381429109 633.9941649786676 683.3063078422019 0 0 0
116 1 1 0 658.4718455193065 632.8840839316732 682.3085392211908 0 0 0
117 1 1 0 683.1009223012361 626.4120418000203 654.8213546013533 0 0 0
683 1 1 0 638.3371223067534 685.9690931709583 675.1569165348124 0 0 0
1634 1 1 0 679.7042330752969 686.2694319456957 640.8467623954907 0 0 0
24792 1 1 0 623.2078347439497 658.3433801071228 644.6679436684024 1 0 0
121 1 1 0 624.6385739210857 624.0078409483043 635.7068865018183 0 0 0
122 1 1 0 624.9666490062832 625.1139160514033 634.9723614983966 0 0 0
123 1 1 0 626.8095066532456 623.983605964371 634.0025735039239 0 0 0
124 1 1 0 625.901538438519 624.9725973148375 633.922763484564 0 0 0
125 1 1 0 627.836869019349 623.9538181184416 633.0695826073113 0 0 0
126 1 1 0 627.427065003339 624.4646681249222 631.8161897256599 0 0 0
127 1 1 0 661.458431234453 629.8939901969989 678.159899234964 0 0 0
128 1 1 0 628.3385254790584 624.3075323406649 630.8091060885678 0 0 0
129 1 1 0 624.1079218419726 670.4521156505252 677.092991217037 0 0 0
130 1 1 0 683.8279737212417 625.7079728067656 655.7279753397902 0 0 0
131 1 1 0 624.1274232710364 626.2338051115942 635.0058424055809 0 0 0
132 1 1 0 624.0433329082897 626.9595869348191 633.618558632625 0 0 0
133 1 1 0 625.4377702387507 625.3606331845699 632.6796777913994 0 0 0
134 1 1 0 624.077986499761 625.7385487321872 632.6684756179308 0 0 0
135 1 1 0 626.232460541983 625.1905566569241 631.5203695463229 0 0 0
136 1 1 0 625.7750790531502 625.7891546596586 630.2827079449695 0 0 0
137 1 1 0 628.3906531359888 625.2369562539932 629.8522911065483 0 0 0
138 1 1 0 626.6380571149803 626.1669540743098 629.254301252847 0 0 0
139 1 1 0 628.9399664511268 624.8323572185898 628.6430589280462 0 0 0
140 1 1 0 628.7184126201106 625.7593325817227 627.6748469663277 0 0 0
141 1 1 0 636.3541593858946 625.9034606812355 670.1488102063081 0 0 0
142 1 1 0 665.2860423173455 636.041677354124 679.889007516509 0 0 0
12692 1 1 0 640.4181353920753 686.1555277957993 647.5279731976676 0 0 0
144 1 1 0 659.6537424403942 627.61783551182 679.7032010793221 0 0 0
145 1 1 0 659.8345421529149 629.6823206974735 634.1594557393873 0 0 0
146 1 1 0 673.8152933198809 685.528866005132 630.1660040575584 0 0 0
370 1 1 0 631.8445339046673 635.5487479725286 623.4914358070171 0 0 0
148 1 1 0 624.2487134334062 669.1648974563092 637.1656308946224 0 0 0
3620 1 1 0 667.0316867319592 630.854039358241 622.6440369965492 0 0 0
1083 1 1 0 647.3103216142633 685.8977987901173 673.6054957252117 0 0 0
1939 1 1 0 674.0464240355839 686.3155578565294 641.332379681912 0 0 0
152 1 1 0 625.496699844455 628.5157259719456 635.6184835050045 0 0 0
153 1 1 0 626.2190538035045 627.8341566598342 634.6152568631837 0 0 0
154 1 1 0 627.6488868284441 627.901758250312 634.4679662295902 0 0 0
155 1 1 0 674.6705503587334 631.7586129334652 684.331588859566 0 0 0
156 1 1 0 661.8620349784783 685.4473182747131 654.8352167111008 0 0 0
157 1 1 0 684.7171784580003 625.6335447748806 682.3351613134712 0 0 0
158 1 1 0 681.9655500621299 645.6010533602044 655.5064481183186 0 0 0
159 1 1 0 623.0662467672497 623.6617208854655 624.4391465980159 0 0 0
160 1 1 0 661.5395599740616 683.7000969247529 662.2928159492094 0 0 0
161 1 1 0 665.0207118701095 682.9218038907098 669.0040607556335 0 0 0
162 1 1 0 627.5308230512477 625.6294159705012 624.2642017692718 0 0 0
5461 1 1 0 686.1473497305137 627.1181674010404 680.3708173295921 0 0 0
164 1 1 0 623.30092844596 629.2641044726515 632.6272293313051 0 0 0
165 1 1 0 625.541344134574 629.9340053136103 635.4414523113314 0 0 0
166 1 1 0 626.8345317009126 630.3175466904091 634.8407974208183 0 0 0
167 1 1 0 628.5019237363866 628.8344955986488 633.7812549679554 0 0 0
168 1 1 0 627.8673106329848 630.1310649714212 633.7876393189737 0 0 0
169 1 1 0 627.1034880203213 672.5727439668897 629.1345833189902 0 0 0
170 1 1 0 626.8572557846857 629.0979147881652 661.6687432145944 0 0 0
2816 1 1 0 684.7247019738677 623.5132853717445 656.4537313831551 0 0 0
12050 1 1 0 634.4065497171763 685.5248823672312 642.0990937456779 0 0 0
11148 1 1 0 655.5167620900216 681.6178373704297 623.5216612901477 0 0 1
3440 1 1 0 637.0533550014154 622.983756700875 666.4188807940282 0 0 0
6435 1 1 0 660.7446594012032 632.7027086776832 686.2570558588873 0 0 0
176 1 1 0 624.1524493550255 631.2166603001898 633.9793787592924 0 0 0
177 1 1 0 624.6187943896081 629.6254965420471 632.3345077876389 0 0 0
178 1 1 0 624.3253269257976 630.6571439353337 635.2946444461434 0 0 0
179 1 1 0 624.9427027224555 630.9734554535511 632.7486828324803 0 0 0
180 1 1 0 625.4587952817146 632.0153799166646 631.8924212689031 0 0 0
181 1 1 0 627.9917074311842 630.8560592812116 632.5305222306121 0 0 0
182 1 1 0 626.2790931336831 632.6081315267971 630.9674272802823 0 0 0
183 1 1 0 625.4905337319582 627.595356029224 633.4362313340657 0 0 0
184 1 1 0 625.5271169820802 628.269152446912 632.0557400439535 0 0 0
185 1 1 0 623.4435888691048 627.1826340089261 630.5116075891532 0 0 0
186 1 1 0 624.3720877858052 628.1978468968919 630.9308281949624 0 0 0
187 1 1 0 624.3190724942078 626.1602878428773 629.6808504991963 0 0 0
188 1 1 0 624.5005437378957 627.1852657247736 628.4425581114309 0 0 0
189 1 1 0 626.4428601897472 626.1789603921663 627.8175027749634 0 0 0
190 1 1 0 625.2555844783129 626.7025555534109 627.392268127458 0 0 0
191 1 1 0 627.449508665523 625.4972113929908 626.8697795900448 0 0 0
192 1 1 0 628.1850854641073 626.3096291027415 625.6339791410245 0 0 0
193 1 1 0 626.8581963672141 628.252718755134 631.3657904422041 0 0 0
194 1 1 0 626.9662747273644 629.5640633486507 630.8170118218306 0 0 0
195 1 1 0 624.7713878518713 629.131362701091 629.9302676784332 0 0 0
196 1 1 0 625.9156591111878 630.0018251386722 630.013840421435 0 0 0
197 1 1 0 624.5524247863519 628.6261727599446 628.6336931438375 0 0 0
198 1 1 0 625.0435650392734 629.4257563776986 627.5812709938601 0 0 0
199 1 1 0 625.1442874658454 627.4329220697545 626.1458654416823 0 0 0
200 1 1 0 625.3725511780187 628.8729107972952 626.3268393997862 0 0 0
201 1 1 0 625.3060359168297 626.9164141608425 624.8271665550277 0 0 0
202 1 1 0 671.5920624935857 626.6835472383976 650.0474677418213 0 0 0
203 1 1 0 628.077516739447 630.254249355698 631.2778416955631 0 0 0
204 1 1 0 629.2237265070764 629.7307984614038 630.7015260280102 0 0 0
205 1 1 0 626.1905300045888 631.0546728732741 629.0795002905285 0 0 0
206 1 1 0 626.7140771525707 632.3463565928015 629.563999740293 0 0 0
207 1 1 0 626.0059807240489 630.4961325773904 627.7901386792129 0 0 0
208 1 1 0 628.2855972012926 629.2976343315662 628.076395109399 0 0 0
209 1 1 0 626.6234325745318 629.4404322600324 625.9328227115316 0 0 0
210 1 1 0 627.4011775304288 630.1948504969386 627.171511863375 0 0 0
211 1 1 0 627.349565913757 628.9075174623331 624.8794230197282 0 0 0
11492 1 1 0 639.8369168446377 675.2668375323896 626.5620401487593 0 0 1
213 1 1 0 656.4499474905427 635.9319723444545 682.373900823387 0 0 0
10937 1 1 0 681.6932317010597 624.1949650229534 685.7957788645812 0 0 0
789 1 1 0 663.8286219748162 685.1696141406426 623.4280503016395 0 0 0
216 1 1 0 631.3609054331404 624.0116057033956 667.0534068637762 0 0 0
5279 1 1 0 632.6804701520552 642.0999796430867 685.9101496429743 0 0 0
218 1 1 0 658.0907387290332 628.7889138309579 678.4636848651645 0 0 0
219 1 1 0 671.0345341221841 683.3378848704822 625.8901663006809 0 0 0
2577 1 1 0 670.6302123843047 622.6978252588494 650.8670166019485 0 0 0
221 1 1 0 634.1953735431766 631.9861184490837 626.8758432102627 0 0 0
222 1 1 0 636.7836141301864 625.1562330345664 674.0820645240251 0 0 0
223 1 1 0 627.3954756951713 669.0343524066689 628.8110442973708 0 0 0
3461 1 1 0 685.7158640883284 656.6394321302314 654.8345489197482 0 0 0
225 1 1 0 657.6561973317333 631.8269406232763 682.9655364960762 0 0 0
226 1 1 0 656.5651194949237 623.2473140621904 682.9891827224478 0 0 0
227 1 1 0 632.0340125118561 622.8623366271893 667.378087105145 0 0 0
8657 1 1 0 642.0450460174021 679.939798800685 623.3462217674826 0 0 1
229 1 1 0 633.6898985014252 626.8238606464395 674.9013823577395 0 0 0
230 1 1 0 662.327512479664 626.5619293591116 681.4903011949501 0 0 0
231 1 1 0 626.301446881694 641.4278871838509 654.5235402157069 0 0 0
10092 1 1 0 645.8819311861265 673.9904567739362 624.414277758625 0 0 1
5193 1 1 0 622.91661353045 636.8173652294078 644.4663076361452 0 0 0
234 1 1 0 666.1378322890716 636.5627909431684 637.9172865024473 0 0 0
3107 1 1 0 645.7869567180919 686.3077797377842 675.4887279717585 0 0 0
236 1 1 0 624.9346252071005 643.2223646286604 653.9487252763063 0 0 0
237 1 1 0 632.8958557356295 625.3887297200589 669.5986355611088 0 0 0
238 1 1 0 634.2268923549622 625.4791313194414 671.5845414734937 0 0 0
753 1 1 0 650.9270630378774 622.8767258567466 626.1343034847054 0 0 0
28094 1 1 0 623.1870974917819 654.242283418495 659.4772412965173 1 0 0
10786 1 1 0 627.6109784611497 669.3674244331517 622.7019554815744 0 0 1
242 1 1 0 633.7257392683176 626.1564712608754 673.7189606469417 0 0 0
243 1 1 0 666.647090350845 631.6886854814111 624.9042259243873 0 0 0
16431 1 1 0 638.7644089334513 685.6914994705243 645.8365649431455 0 0 0
245 1 1 0 630.4963149574835 673.5923098418601 630.209637325775 0 0 0
246 1 1 0 683.2050187589581 645.3930669950738 654.863665891912 0 0 0
247 1 1 0 672.8621457434908 681.9577943828771 625.4034545483934 0 0 0
16090 1 1 0 630.6202550621346 683.931408842245 641.4944233573739 0 0 0
249 1 1 0 659.7458723097697 634.9428493261503 643.4608515686659 0 0 0
250 1 1 0 626.090276377637 669.1138021345386 626.7330064667512 0 0 0
8393 1 1 0 653.2177179816389 680.9910412059478 623.2399780622918 0 0 1
1632 1 1 0 686.3071717231833 681.740613628695 632.133042130828 0 0 0
253 1 1 0 682.5816845372915 624.723206099306 680.7593563701485 0 0 0
254 1 1 0 632.9163635610591 625.2440613698459 668.1931808247236 0 0 0
255 1 1 0 656.1481409275242 678.490289405863 656.2006818883558 0 0 0
256 1 1 0 663.4583562598662 629.1573424452415 624.9826354250586 0 0 0
257 1 1 0 668.3604927283704 630.7269982662134 645.0555355890441 0 0 0
857 1 1 0 623.3086501823516 668.5023764785012 645.616294883953 0 0 0
259 1 1 0 658.2936251316843 626.9433887092567 676.2520697523663 0 0 0
260 1 1 0 631.9711358523787 676.3306489239168 628.2876089391161 0 0 0
261 1 1 0 636.6421547297247 624.9858477039057 667.8421990747952 0 0 0
3049 1 1 0 622.8482499436201 676.3397318464453 632.0129928759603 0 0 0
952 1 1 0 686.0167813025507 625.5838733102457 656.6388301269467 0 0 0
264 1 1 0 633.4440968410947 623.072988643068 667.5155179359448 0 0 0
9731 1 1 0 663.3174931407688 625.1801754514842 686.6328875242712 0 0 0
266 1 1 0 628.2723617422545 671.8827642156366 679.6156048744408 0 0 0
267 1 1 0 628.1339758939741 675.8779606600538 631.5412969020485 0 0 0
268 1 1 0 625.2119274034966 633.116220368918 654.9602558544971 0 0 0
824 1 1 0 623.214457138632 673.617699411827 643.0406329963362 0 0 0
270 1 1 0 623.3065698652317 637.4865271233757 654.4777736796575 0 0 0
271 1 1 0 633.8951086385304 624.4054164990062 667.6712966995276 0 0 0
272 1 1 0 627.1495072160902 643.788485745392 654.6627253097101 0 0 0
273 1 1 0 626.2274807284123 632.3060049635255 683.1196399551342 0 0 0
274 1 1 0 660.7073248484259 683.492757139115 656.2379223713677 0 0 0
275 1 1 0 636.2692282295776 678.0655013522634 627.2233682420045 0 0 0
276 1 1 0 660.8359466059673 632.9126003923905 644.5109435088817 0 0 0
277 1 1 0 684.9234440228627 651.4552716610712 625.8877766679641 0 0 0
278 1 1 0 641.1626276071082 682.3911448223421 674.831372895534 0 0 0
279 1 1 0 635.0333111077152 625.8038293312011 669.3937143736198 0 0 0
280 1 1 0 629.5984245662256 671.9271863148194 679.0157923209291 0 0 0
281 1 1 0 634.6752603580392 677.4924778268752 632.0056700513915 0 0 0
282 1 1 0 626.8341570098008 629.1467009987393 659.171166264121 0 0 0
283 1 1 0 624.7536970797522 625.5260684846506 659.6595578440514 0 0 0
284 1 1 0 626.930369106254 625.3057129837453 658.678519828356 0 0 0
285 1 1 0 626.4573197256013 637.0477581760872 651.2242935081767 0 0 0
5572 1 1 0 678.4064498625281 623.4459940674492 654.360194903179 0 0 0
287 1 1 0 624.6879613285516 626.9694956252259 663.3661240832954 0 0 0
288 1 1 0 663.9112243723703 635.3818461476457 640.0264807165689 0 0 0
289 1 1 0 632.500811854275 678.5713310015916 631.2036317937543 0 0 0
290 1 1 0 636.9320218659085 623.3711246971947 669.6745115535274 0 0 0
291 1 1 0 659.1782223727191 628.1697032018693 680.8464356772366 0 0 0
292 1 1 0 678.7265290470876 681.8058222489899 629.4081703263363 0 0 0
293 1 1 0 683.6135208186048 649.9276543592822 627.8187788368108 0 0 0
294 1 1 0 630.4237595734958 679.0117211032945 636.0134230814668 0 0 0
295 1 1 0 635.3747246697177 628.3515181503394 627.9453881392292 0 0 0
5455 1 1 0 643.8122341767561 686.3922704891895 675.1693620874019 0 0 0
663 1 1 0 685.4749830877719 644.9930314454122 657.8320494831731 0 0 0
298 1 1 0 628.8706591403352 643.0665088630628 652.6813948861981 0 0 0
299 1 1 0 630.2270420996318 626.0096725329203 631.9414462200914 0 0 0
11495 1 1 0 658.4966321423265 638.7385641061325 685.2284449437401 0 0 0
301 1 1 0 628.7507674848462 643.0074251377503 651.22614950181 0 0 0
5472 1 1 0 657.3442281721962 622.8719519564336 680.6973600651118 0 0 0
303 1 1 0 628.8828853107735 644.2530640832601 650.4604362074149 0 0 0
304 1 1 0 667.9023256685801 624.9392733720784 650.3632014232189 0 0 0
305 1 1 0 659.3783908087275 683.1899635800124 656.016123153805 0 0 0
306 1 1 0 665.851732620902 638.1749576282135 638.4214847897587 0 0 0
307 1 1 0 657.0577433156452 635.0814600526264 681.3439399922645 0 0 0
308 1 1 0 663.9135155632749 636.3471006046176 639.0337023093358 0 0 0
309 1 1 0 639.7682561629077 681.7406518270269 649.7383834391707 0 0 0
310 1 1 0 645.321132403256 683.0981674666263 667.669128449011 0 0 0
311 1 1 0 624.5479135061352 648.2388727217701 655.6087243277836 0 0 0
312 1 1 0 624.4016510842448 677.351227451907 630.0200109358669 0 0 0
313 1 1 0 681.3421280415433 684.7043261732382 632.5242715042428 0 0 0
2033 1 1 0 652.0180304975363 686.0579536291291 671.5734486863986 0 0 0
315 1 1 0 628.1619802970833 641.7980900116954 650.8256799063074 0 0 0
316 1 1 0 632.4013412679227 675.5008194661125 638.7514212613007 0 0 0
317 1 1 0 626.0022920728018 673.5092607306065 678.108443000487 0 0 0
318 1 1 0 628.5523194120451 626.1406991264844 660.3450211916439 0 0 0
319 1 1 0 626.1675652458771 671.0307754939089 678.6496567127624 0 0 0
320 1 1 0 656.6534904833997 634.5876207539029 676.5585642915865 0 0 0
4875 1 1 0 669.7594082879093 686.2953855427877 643.8199973789709 0 0 0
322 1 1 0 624.6593853753499 676.3923822200537 676.0391499376831 0 0 0
323 1 1 0 684.2269206173098 655.4048226462451 652.7968628152694 0 0 0
324 1 1 0 637.1913786021748 624.528479597012 670.3392289294209 0 0 0
325 1 1 0 659.3845975337462 630.1863836431559 642.4742039300617 0 0 0
5454 1 1 0 686.2828461862564 684.2653740035798 638.861737407223 0 0 0
327 1 1 0 624.3990604521993 672.3735657063954 626.9359629734852 0 0 0
1407 1 1 0 647.2913125599393 685.5258692825306 670.3382180107941 0 0 0
892 1 1 0 685.9868049535982 682.23484162006 629.2182833408573 0 0 0
330 1 1 0 630.7379537532287 631.8771010910687 623.9893125846427 0 0 0
331 1 1 0 628.738205248175 631.8588919831161 625.6191943544027 0 0 0
332 1 1 0 630.2808780678007 631.7554029698354 625.449495996578 0 0 0
333 1 1 0 628.2901907151748 631.321231174402 626.8139353684198 0 0 0
334 1 1 0 629.2624508815559 631.491966744065 627.8445590792244 0 0 0
335 1 1 0 627.8088343901751 633.1642861134823 628.689879166092 0 0 0
336 1 1 0 629.2342869881625 632.8055396780029 628.4042654802358 0 0 0
337 1 1 0 627.5253497659226 634.175440279853 627.6774911180903 0 0 0
338 1 1 0 628.1870929537565 634.435315764662 626.4585401962 0 0 0
339 1 1 0 628.0202206188221 632.6800583444738 624.7898191780922 0 0 0
340 1 1 0 627.7943547475907 634.0413578006414 625.1227318635338 0 0 0
341 1 1 0 624.4647414540985 671.8485792136928 677.2637528038629 0 0 0
342 1 1 0 663.3209946413069 631.3757225463883 628.9812625105767 0 0 0
343 1 1 0 683.364879833579 634.7997704240468 654.2561389216222 0 0 0
344 1 1 0 658.811034941155 630.8071280750733 630.3029343089619 0 0 0
345 1 1 0 630.0273566031304 630.5776516017075 623.8563275376712 0 0 0
346 1 1 0 630.0564539972655 629.6125079672094 625.1118535861343 0 0 0
347 1 1 0 630.8287016280287 630.4371962455211 626.3319689942523 0 0 0
348 1 1 0 632.390968389068 630.482815247927 626.4802270519036 0 0 0
349 1 1 0 630.3293461711258 630.5861111640114 627.7162038431991 0 0 0
350 1 1 0 631.5044083111727 632.8828774914298 627.1878465966139 0 0 0
351 1 1 0 630.247025480914 633.6585551230189 627.6341764411859 0 0 0
352 1 1 0 631.4390016980244 632.6913083344738 625.7167575639388 0 0 0
353 1 1 0 629.6414546199003 634.5388832112905 626.5228040825095 0 0 0
354 1 1 0 630.229067817512 635.0611494432994 625.2829720741612 0 0 0
355 1 1 0 628.1134779521892 634.9466902130307 624.0661234312118 0 0 0
356 1 1 0 629.2804789019 635.6994140936926 624.3041229794078 0 0 0
844 1 1 0 659.5403702168271 623.2624597589745 682.0490500692657 0 0 0
358 1 1 0 638.7629408309683 680.8453229841175 650.0833392028518 0 0 0
359 1 1 0 655.567266164086 624.3332100336581 649.4358598980812 0 0 0
360 1 1 0 624.1543496270084 675.3138883537962 628.7615823829267 0 0 0
361 1 1 0 628.7171706932216 628.7636880755992 625.3091823262563 0 0 0
362 1 1 0 631.0690955100595 628.8608269648572 624.2074886246119 0 0 0
363 1 1 0 632.8234594810873 630.3770438606293 624.9969238379334 0 0 0
364 1 1 0 632.3191348371164 629.688191666746 624.010996481153 0 0 0
365 1 1 0 633.9250863683341 631.1902326915844 624.6780136440159 0 0 0
366 1 1 0 633.6366636175421 631.8514799194195 623.4484077401455 0 0 0
367 1 1 0 632.0925972430849 633.4739665728374 624.7487280619739 0 0 0
368 1 1 0 632.762061389956 632.8967088460391 623.6337192172447 0 0 0
369 1 1 0 631.534589731265 634.7681519657865 624.6438950483924 0 0 0
119 1 1 0 629.2379645133194 628.1577446043211 622.8304861595365 0 0 0
371 1 1 0 656.6107171607307 630.7410730175045 629.3414987642647 0 0 0
372 1 1 0 624.3353654972074 668.1302280087295 642.3942598311272 0 0 0
373 1 1 0 631.6163402267093 685.1666516410833 645.340958697141 0 0 0
374 1 1 0 664.5996326965903 624.0633041416396 646.9671388486946 0 0 0
375 1 1 0 643.6426830683822 623.4352031668368 671.687966614455 0 0 0
376 1 1 0 669.1347465229783 624.3758556724729 650.3968120624318 0 0 0
377 1 1 0 653.7371227859768 623.8208862882287 676.8681437378352 0 0 0
378 1 1 0 668.6851824774546 685.845534264367 624.7106458467342 0 0 0
35959 1 1 0 622.7731852063883 686.4815171886103 642.1833043938859 1 0 0
296 1 1 0 624.1141546029031 622.8428118195758 630.9576319509223 0 0 0
3565 1 1 0 659.2972076401136 623.1828049147487 625.1125075350632 0 0 0
382 1 1 0 631.2323690019571 624.132631654602 664.6921475268106 0 0 0
5744 1 1 0 657.5343813183957 634.8886767437542 686.4809053867558 0 0 0
6034 1 1 0 660.2909559440865 624.0799292386521 685.2472611402249 0 0 0
897 1 1 0 675.6683361605684 622.7041984516453 652.1572652976868 0 0 0
386 1 1 0 663.1285247791319 631.1487968498482 626.3638324749362 0 0 0
387 1 1 0 663.2877067850644 630.728194513405 631.7685246319818 0 0 0
388 1 1 0 633.5678317086359 624.7792562480821 624.5921624036021 0 0 0
389 1 1 0 681.9644013788313 626.3150190095072 652.7763198043855 0 0 0
390 1 1 0 664.0628155238977 633.8075031952611 638.2233541063861 0 0 0
391 1 1 0 651.7447575755696 627.9336255178007 632.1852604558715 0 0 0
4910 1 1 0 651.8716272266272 686.1229155420504 677.3925070485703 0 0 0
393 1 1 0 635.3864201685584 683.0995284070916 645.7661698416736 0 0 0
394 1 1 0 656.691530667915 633.2199788576033 676.8006893810164 0 0 0
3898 1 1 0 625.2962792098461 622.6535824844223 664.8331422857511 0 0 0
396 1 1 0 656.9439866359274 633.546271618353 679.1840037378562 0 0 0
397 1 1 0 683.3458965633712 642.2831205355075 654.7799668136802 0 0 0
398 1 1 0 658.8004525267361 682.1566611537069 666.2533754236478 0 0 0
3960 1 1 0 622.5332633450025 630.7089334099281 643.4011768203737 0 0 0
400 1 1 0 664.6863620822893 636.0469014325973 637.9053578035349 0 0 0
401 1 1 0 663.4179299359586 631.6227331063683 640.0607708705853 0 0 0
402 1 1 0 625.8594334606012 670.4992724403854 629.7972846272978 0 0 0
403 1 1 0 624.4943404026094 625.9090205113689 657.0547630094127 0 0 0
12277 1 1 0 633.3304392832359 686.3691427752116 641.9270867444036 0 0 0
405 1 1 0 661.3843679785147 634.3674868435728 641.7777009999153 0 0 0
16657 1 1 0 658.9146737993376 623.5754935189516 638.5551725262 0 1 0
407 1 1 0 666.2747582994082 684.8977351703646 673.4736564911357 0 0 0
607 1 1 0 685.8439039408665 677.9021159540606 623.8259301563012 0 0 0
6681 1 1 0 650.4968582228297 675.4010377587846 623.4018335196781 0 0 1
410 1 1 0 626.7736900815448 682.6888331501624 640.9526455280751 0 0 0
411 1 1 0 654.7589714227013 632.2441403188135 675.7617999881402 0 0 0
5487 1 1 0 645.9281303017207 686.3029063630669 671.5758790317911 0 0 0
413 1 1 0 654.9668646468554 627.8249059685068 671.4231620291392 0 0 0
414 1 1 0 652.0663063657504 625.0864628747765 670.6311639850786 0 0 0
415 1 1 0 656.9087454965722 630.3923139808307 677.1148212895865 0 0 0
416 1 1 0 661.756169160377 628.7815211932248 646.7595147490863 0 0 0
5589 1 1 0 673.9699684206848 627.2664640911992 685.6775552910044 0 0 0
418 1 1 0 655.2576351992218 624.9092321713151 675.314155624684 0 0 0
419 1 1 0 637.9027227606383 624.4049390833072 671.4096617072513 0 0 0
420 1 1 0 634.5755510301464 624.5939729870666 676.0286725922516 0 0 0
421 1 1 0 636.4967277765627 683.6613927064684 642.7230028377485 0 0 0
3480 1 1 0 667.307284130804 686.0116868400426 647.0296260315331 0 0 0
1281 1 1 0 686.1411818111761 664.6175027790298 684.8314429086366 0 0 0
424 1 1 0 659.0100513374911 631.3585982126764 632.5412876145682 0 0 0
9871 1 1 0 628.8435167219474 675.4943560193036 623.5053392847685 0 0 1
426 1 1 0 684.5184735969599 656.3697681470803 627.7516696552228 0 0 0