LAMMPS data file via write_data, version 2 Aug 2023, timestep = 50000, units = metal

3836 atoms
1 atom types

640.5502545880015 719.3757454120018 xlo xhi
641.4908648494079 719.1441351505907 ylo yhi
641.0201084121545 719.6148915878441 zlo zhi

Masses

1 12.0107

Atoms # full

804 1 1 0 672.7172461965538 673.6135209990315 647.8232935134048 0 0 1
288 1 1 0 674.9138441197792 651.8430431287084 649.0873164082229 0 0 0
358 1 1 0 671.347248681977 649.4015874499125 647.7951214040885 0 0 0
4 1 1 0 674.5982458115755 652.4986963673114 651.4326609831234 0 0 0
796 1 1 0 663.8174749942339 672.6056371832543 647.0034051406155 0 0 1
2815 1 1 0 664.7173815266137 677.2879408424507 656.4215357676495 0 0 0
779 1 1 0 669.7398356365661 672.5286264513319 649.5139240990611 0 0 1
781 1 1 0 666.5469332631396 673.2760827349737 649.513832539225 0 0 1
1772 1 1 0 661.9105084127775 674.9212988577668 647.6812284358472 0 0 1
1871 1 1 0 668.2591275540123 676.714321890556 652.9265411771452 0 0 0
772 1 1 0 671.72555271713 675.8692898722428 648.0483319937844 0 0 1
3126 1 1 0 662.5029321220882 677.5066352181087 669.0427832907067 0 0 0
146 1 1 0 676.9412045429665 651.0401422435631 652.1861589971528 0 0 0
751 1 1 0 674.3597134488278 674.7616176793749 649.7053077619246 0 0 1
801 1 1 0 665.2542690063005 672.756534520189 646.6581614302783 0 0 1
811 1 1 0 670.3211167188392 672.4481099604353 645.8833497372123 0 0 1
805 1 1 0 667.6637898699081 672.100394757252 647.0655311836323 0 0 1
18 1 1 0 676.7631933917442 672.4718354070027 649.9806328505742 0 0 0
837 1 1 0 673.5950869754457 672.1362927819384 649.7116580976732 0 0 1
2757 1 1 0 664.1941576182707 679.6807865415614 656.7781472103767 0 0 0
1304 1 1 0 657.9834281495314 676.9348650966278 643.0669529195111 0 0 1
1489 1 1 0 657.3259766877377 672.4000997487449 643.459377821494 0 0 1
1850 1 1 0 674.0779464235499 674.6208032033624 654.363018400892 0 0 0
1656 1 1 0 660.2581053381664 674.2326815156138 641.0915591843801 0 0 1
834 1 1 0 665.6421159528043 672.5649244463187 648.7197051456104 0 0 1
154 1 1 0 669.5517439560239 650.9417081410895 647.2616190860539 0 0 0
808 1 1 0 669.8871793817392 674.9751290070628 646.5899735119445 0 0 1
28 1 1 0 673.1077101119939 653.2377929862605 649.5606918446169 0 0 0
198 1 1 0 676.1019383115016 671.2979179794171 649.5957995701738 0 0 0
621 1 1 0 677.817200450627 670.7561729211549 646.834141379742 0 0 1
2782 1 1 0 667.637171356798 677.8718647650687 653.5060731069892 0 0 0
668 1 1 0 673.5127693261876 673.6314577979322 649.8530228322328 0 0 1
1457 1 1 0 659.1582626708118 675.875819440214 644.7744554387323 0 0 1
34 1 1 0 678.08476095197 670.1445529388003 650.9372235109614 0 0 0
35 1 1 0 678.7712213667393 671.432398963575 651.0457449576907 0 0 0
212 1 1 0 671.3662572092212 651.9423710543646 648.4722978965808 0 0 0
809 1 1 0 670.8327253264324 669.8998557616867 648.4003070267994 0 0 1
776 1 1 0 668.7290937482993 671.3416118669363 647.4997834765065 0 0 1
746 1 1 0 675.3768836105477 671.9200613155414 646.5018897241192 0 0 1
40 1 1 0 675.5569401955626 651.7719201045451 646.7647695162173 0 0 0
766 1 1 0 669.6535326144572 670.0900071983814 649.2138084341102 0 0 1
1910 1 1 0 667.9858806231609 673.0393851028682 655.3364415214311 0 0 0
226 1 1 0 673.6980561551161 653.3794125504962 650.7803630650827 0 0 0
1839 1 1 0 669.8675076119505 679.090296125384 653.1570734335627 0 0 0
876 1 1 0 677.4092601398618 675.8766005989321 648.9592637329425 0 0 1
2109 1 1 0 671.7684394955611 674.2200103968337 653.375973737844 0 0 0
149 1 1 0 679.7220631742199 649.456789990984 667.2250556795896 0 0 0
432 1 1 0 676.4825413417875 672.7508697618567 646.76041914348 0 0 1
1604 1 1 0 660.0925906474133 675.83597924913 645.7872217847867 0 0 1
1864 1 1 0 668.1364313278502 675.4582416843912 653.6882508049722 0 0 0
793 1 1 0 672.7955110891754 671.8302459820293 646.014180313053 0 0 1
783 1 1 0 666.2372283217645 671.9683304507382 647.4350017641382 0 0 1
259 1 1 0 678.7022093758784 678.2991970206232 654.7801548496981 0 0 0
2291 1 1 0 679.3851474637304 652.3132236572458 680.0371775706664 0 0 0
3135 1 1 0 665.8606353892112 678.8218232149861 654.9305547646861 0 0 0
56 1 1 0 671.3920758890396 675.8302894504316 650.701678959155 0 0 0
322 1 1 0 675.8223978620788 653.2122931820898 646.4771822252726 0 0 0
2775 1 1 0 664.7611893638987 675.6976966685457 657.9279618701153 0 0 0
585 1 1 0 676.2316534452845 673.5934923108597 649.3054857848197 0 0 1
618 1 1 0 678.8446071323484 672.9459303963437 647.1041580880272 0 0 1
1904 1 1 0 670.538225968901 677.9759007135679 652.3562684415681 0 0 0
2125 1 1 0 670.4513088598397 674.7822243663483 652.9515770415801 0 0 0
836 1 1 0 674.6983690624206 671.23512514508 649.2958923777301 0 0 1
635 1 1 0 678.8432780403253 669.148039122724 645.2167742437878 0 0 1
1378 1 1 0 659.2977948137656 673.7986301707194 646.4687756950799 0 0 1
654 1 1 0 676.6388683001778 670.2426978597823 647.6032362151724 0 0 1
67 1 1 0 678.1415628163726 672.5440084541063 650.2947722706483 0 0 0
26 1 1 0 679.4652199040147 653.8812088900346 653.7878346210651 0 0 0
69 1 1 0 673.4034365143973 653.8557854790691 647.9935308711695 0 0 0
1393 1 1 0 659.5512930125333 675.1571123998746 647.0662223795578 0 0 1
1903 1 1 0 670.2143826305243 672.5903864691711 654.645739547502 0 0 0
1380 1 1 0 661.2712453259307 675.188644357454 645.3768447859678 0 0 1
802 1 1 0 674.0698469062521 672.3803535690375 646.3382710811392 0 0 1
598 1 1 0 672.17235176894 671.5847157005434 649.6110716894062 0 0 1
1927 1 1 0 671.8495698622755 677.7475874238098 651.9403891418252 0 0 0
738 1 1 0 674.3942288926512 670.422150411671 648.1276824551322 0 0 1
1905 1 1 0 669.5891834349924 676.8583905559987 652.1948633903133 0 0 0
789 1 1 0 671.9606095537441 673.9718804965194 646.7137113652121 0 0 1
2149 1 1 0 666.9586875378386 675.2297619430235 654.4193458412313 0 0 0
222 1 1 0 678.0329957063578 669.6332846810934 649.6271342511442 0 0 0
368 1 1 0 670.3254218207994 675.6160060347081 651.7983730656973 0 0 0
3134 1 1 0 665.7157216899702 679.0059593946655 663.3899516673888 0 0 0
894 1 1 0 663.0660148609699 674.2280442863911 644.0932355690115 0 0 1
1630 1 1 0 655.9021166450837 677.4964290665081 643.0911708763235 0 0 1
803 1 1 0 672.0731775210853 673.8275895428771 649.2852476904733 0 0 1
878 1 1 0 671.310947983031 675.217817758297 649.3970172826088 0 0 1
770 1 1 0 667.0289325371702 674.3482073815932 646.6725931031244 0 0 1
576 1 1 0 664.2578876861678 674.7920435316856 644.60847409082 0 0 1
231 1 1 0 673.5660199305977 653.3601741403941 646.3847251895406 0 0 0
52 1 1 0 671.9050097190749 654.2283398650613 647.5831081209967 0 0 0
849 1 1 0 662.0783392633375 672.2075927174104 645.0127891262377 0 0 1
213 1 1 0 676.0042554254846 651.4662525857284 648.0458504187204 0 0 0
239 1 1 0 674.931579605917 652.269081075495 652.7731329986168 0 0 0
823 1 1 0 674.9007021861353 674.462811550752 647.6174716622093 0 0 1
309 1 1 0 663.3799408344182 677.0312208766223 675.5267256398288 0 0 0
184 1 1 0 679.4096397472277 676.8589556980656 668.9333969524544 0 0 0
846 1 1 0 664.0571821419088 675.5922462438507 646.9590502388384 0 0 1
3125 1 1 0 664.2406012686622 678.287306284728 670.7152612068473 0 0 0
3119 1 1 0 661.1653405371246 677.7152209167115 668.4076108957731 0 0 0
1713 1 1 0 658.1414169909349 674.8540703838094 644.740245315866 0 0 1
1775 1 1 0 661.7590462534504 674.0150599678404 646.4756998673248 0 0 1
788 1 1 0 669.0988435531939 675.2660930978075 647.7542770588864 0 0 1
303 1 1 0 676.298892134054 652.0436142253033 653.0760579510027 0 0 0
800 1 1 0 669.049215990513 671.362422799565 648.9077735278464 0 0 1
374 1 1 0 676.0839914270755 677.7810729437679 654.0372106492408 0 0 0
579 1 1 0 669.7710127139741 674.8883260236963 649.0201736261982 0 0 1
1902 1 1 0 671.5401151239307 673.0077483045873 654.1283031711632 0 0 0
3132 1 1 0 664.3486829880336 676.9710978550285 667.180192460517 0 0 0
767 1 1 0 669.8955279475074 671.2931735123959 646.5712154558746 0 0 1
1400 1 1 0 660.6088277502784 675.2554091663337 648.1211188562618 0 0 1
3294 1 1 0 666.3005838778379 676.4331527378602 654.8020477569689 0 0 0
1454 1 1 0 660.6914569906589 672.0401360263445 645.3573213860201 0 0 1
204 1 1 0 672.5468965353842 651.9728300916413 649.1989759473233 0 0 0
3122 1 1 0 665.2716866330338 679.5850437681846 668.9801503333589 0 0 0
276 1 1 0 670.6505005860639 650.6591660927937 648.1198883521981 0 0 0
3131 1 1 0 663.5394911899726 677.3920181441305 665.9547252102793 0 0 0
732 1 1 0 679.8742949594476 667.4486503016744 641.1458013573881 0 0 1
408 1 1 0 669.0838483223266 673.8061629028862 649.5669105747531 0 0 1
786 1 1 0 671.7552220902772 672.7612155655617 645.8854467464852 0 0 1
186 1 1 0 676.5588334889322 677.552698429609 666.6588203295278 0 0 0
395 1 1 0 664.7280758392837 674.9534414987811 645.9119660439583 0 0 1
2330 1 1 0 679.9477980250783 677.3820477641317 674.0303158501499 0 0 0
1897 1 1 0 672.42529397009 676.5062623530578 651.47570686425 0 0 0
103 1 1 0 671.4558621782126 655.2738046296203 646.7809405052681 0 0 0
623 1 1 0 672.0853379913347 670.3035408375019 648.9609515003285 0 0 1
2327 1 1 0 679.7702504924657 674.3471227988871 677.4791211870657 0 0 0
812 1 1 0 668.0132970251847 673.3120398861554 646.277059157603 0 0 1
1758 1 1 0 659.6721921856248 671.9004549416405 644.349063458569 0 0 1
736 1 1 0 664.3557540009813 673.0337506550218 648.437583611579 0 0 1
775 1 1 0 667.675490483967 674.0457101248875 649.1995308107197 0 0 1
2816 1 1 0 668.5177428307234 679.0495587002705 653.5629512397242 0 0 0
305 1 1 0 671.0623891125473 653.0951958364911 647.5414785205714 0 0 0
1889 1 1 0 673.4691775871096 675.9194299842026 652.2809814444529 0 0 0
651 1 1 0 677.7873690524282 672.1332421217776 646.5896292161823 0 0 1
769 1 1 0 673.9929515221452 673.4384674382478 647.2545898900756 0 0 1
3300 1 1 0 666.4371067383235 677.6635696251424 654.3122614250863 0 0 0
135 1 1 0 670.5736294177093 648.4240360603497 647.1162724922732 0 0 0
791 1 1 0 670.8762938373735 670.3116808212133 646.9200421215565 0 0 1
2061 1 1 0 674.4863264678095 676.786322776616 652.6269388548113 0 0 0
230 1 1 0 669.9102296083587 651.5876466967715 646.0223649533419 0 0 0
855 1 1 0 678.7844122046985 669.7195666138809 646.5131705644997 0 0 1
273 1 1 0 674.8577598914145 653.4587998016023 648.5594300027243 0 0 0
1916 1 1 0 666.8106801539212 673.8956104588278 655.1856550840236 0 0 0
327 1 1 0 673.5993086577301 651.1779375500793 648.749203522901 0 0 0
780 1 1 0 671.1646843520911 672.5470171453179 649.6693266443764 0 0 1
1467 1 1 0 657.1684515482771 674.7493712839674 643.7264762649475 0 0 1
324 1 1 0 675.2821604927351 651.6775467349997 650.519010878276 0 0 0
214 1 1 0 676.1132433387862 653.7246063887167 647.8215603664736 0 0 0
1849 1 1 0 675.2471518479628 676.7105404205435 653.7921674468624 0 0 0
2770 1 1 0 664.131903745 678.364413790605 658.5798833129983 0 0 0
1909 1 1 0 669.1235288372654 673.3952170132741 654.381830518725 0 0 0
1706 1 1 0 660.4935047448137 673.1402385459651 646.2616474844474 0 0 1
792 1 1 0 665.6586201528377 674.0562202431456 646.2978928879254 0 0 1
157 1 1 0 674.5641437144908 650.4717962715265 643.777278733028 0 0 0
1384 1 1 0 661.2017923806542 675.376061407615 642.9636407561414 0 0 1
782 1 1 0 672.3521179513087 670.5109464594863 646.5979804902407 0 0 1
175 1 1 0 677.039067497539 676.9326590125088 665.4248656453273 0 0 0
589 1 1 0 674.203965810274 675.4361093684383 648.4175753280423 0 0 1
411 1 1 0 676.3323063065985 673.9009844046096 647.7243172300342 0 0 1
787 1 1 0 671.2679010106316 675.160968410143 646.8626836965118 0 0 1
810 1 1 0 673.1016410406927 676.3377861957417 648.1508136162922 0 0 1
233 1 1 0 679.14126181602 673.2635186176467 649.4713024869326 0 0 0
1960 1 1 0 679.7112604892945 649.1440530447745 679.8978127936737 0 0 0
634 1 1 0 663.9129099954974 674.3655327236315 648.9308618818201 0 0 1
861 1 1 0 677.6043431679042 674.6998297460507 648.1504842449775 0 0 1
1595 1 1 0 658.3228089464078 672.4931894640956 644.5458642974588 0 0 1
361 1 1 0 675.1031096817878 675.5359385299349 654.589639779928 0 0 0
2799 1 1 0 664.6235290164497 678.6523781044685 655.854299871175 0 0 0
1884 1 1 0 672.978614514087 674.95590281306 653.3220177903584 0 0 0
2905 1 1 0 665.4628368349117 676.2398259112201 655.9030823235712 0 0 0
1718 1 1 0 659.2462856470908 676.6692941861502 643.6049556277453 0 0 1
2077 1 1 0 665.2571883922616 675.0520310012705 656.7390700429542 0 0 0
19 1 1 0 677.4613129232655 678.083154058419 654.3574156966293 0 0 0
1753 1 1 0 658.4008745457053 673.6799022949062 645.3992565644733 0 0 1
234 1 1 0 672.7358326411558 649.3089843259096 647.5104883555572 0 0 0
653 1 1 0 662.6807450890075 672.7191164734814 646.2237527930849 0 0 1
2076 1 1 0 665.6815794146058 673.9072511406561 656.005025087361 0 0 0
156 1 1 0 676.6857213657945 675.8087655101222 650.1210456984664 0 0 0
595 1 1 0 663.235739576879 675.1474506483052 647.9949464533897 0 0 1
1823 1 1 0 669.2247022344109 674.6003483915218 653.7284200926596 0 0 0
426 1 1 0 673.0678862180908 670.0643027090914 647.8996458797234 0 0 1
768 1 1 0 669.4297306693618 673.6430675986812 646.0249164573901 0 0 1
378 1 1 0 662.4236036915017 672.8796845674036 643.8574323651254 0 0 1
806 1 1 0 667.7394867986067 674.8627568961685 647.96230884308 0 0 1
208 1 1 0 673.5703771158788 650.3851443547876 647.67433005169 0 0 0
1352 1 1 0 661.948178465275 675.1646675661447 644.1690643547103 0 0 1
898 1 1 0 676.8372824465489 670.2190162117429 649.0298803256027 0 0 1
887 1 1 0 675.3949865288832 670.5564645916445 647.180223650991 0 0 1
574 1 1 0 678.7637080181374 673.836054610451 648.2016931033834 0 0 1
3123 1 1 0 665.2976701331125 678.6884364052673 670.0066935267566 0 0 0
377 1 1 0 675.7894478226909 674.7170302067593 649.9931490514228 0 0 0
3168 1 1 0 665.2000664745223 679.0889339843919 659.2709852143898 0 0 0
3246 1 1 0 664.4686643226594 677.1089244932922 657.9922890010862 0 0 0
3130 1 1 0 664.7031556985605 678.17579073475 663.9452531846792 0 0 0
1720 1 1 0 660.1605534592363 672.1254865212027 643.0447594751979 0 0 1
1771 1 1 0 661.3159444980765 673.0024105096732 642.9158058211611 0 0 1
1678 1 1 0 657.3730888379328 675.677081208142 642.7575839131498 0 0 1
356 1 1 0 673.8200752486391 655.9754028513432 641.2238607413585 0 0 0
1484 1 1 0 656.509953288107 673.567566236303 643.2795134438076 0 0 1
364 1 1 0 670.3534232774439 648.5429387914 645.7279876994107 0 0 0
255 1 1 0 677.1079939995208 652.9472884522679 653.8002434819728 0 0 0
181 1 1 0 673.6030511780627 679.799435397572 669.4703758004379 0 0 0
1579 1 1 0 657.1797323898976 677.969515020189 642.5688537739605 0 0 1
148 1 1 0 679.1887409663341 651.0029875519532 668.9625878345943 0 0 0
1650 1 1 0 655.1536923176252 676.6526116857857 642.2463712859685 0 0 1
2654 1 1 0 678.2787889748223 674.4813436916181 673.4688801299668 0 0 0
333 1 1 0 678.0816872991522 653.8350035622277 653.9113885338792 0 0 0
1491 1 1 0 660.2083632358026 676.4216367228862 642.5694288573573 0 0 1
3129 1 1 0 663.8690447920607 677.2373006293436 664.6002397610981 0 0 0
2979 1 1 0 666.7532443056798 679.9416596676828 655.2264421334003 0 0 0
3124 1 1 0 662.9335314766238 678.6004924730917 669.9931921251168 0 0 0
319 1 1 0 676.5362035291796 651.1583130914416 650.8057971894913 0 0 0
2810 1 1 0 664.8443120902741 679.6928177458607 660.7075602641189 0 0 0
258 1 1 0 667.1722479535209 677.9252260867465 672.8267730853039 0 0 0
3110 1 1 0 662.193685936712 678.1966208425576 666.3445424168698 0 0 0
3111 1 1 0 661.1510154468288 677.4162003376376 667.0375979851448 0 0 0
3127 1 1 0 663.4888558459754 676.7529611540532 668.3188151786933 0 0 0
274 1 1 0 665.8342636448677 678.5178313960253 673.0058452063151 0 0 0
3121 1 1 0 665.4756051438513 677.8030284512781 667.5111919817333 0 0 0
332 1 1 0 674.8085486694043 653.8812850147561 645.758581904564 0 0 0
3120 1 1 0 665.7306143796933 679.2083048934558 667.6715033584103 0 0 0
2402 1 1 0 679.406879683661 671.887194318088 677.4790006529281 0 0 0
1480 1 1 0 655.3138803189589 675.0741639971081 641.7146265789543 0 0 1
1628 1 1 0 654.6757710557455 677.4812026826459 641.1904193818285 0 0 1
1386 1 1 0 655.6011564030698 672.7484047452286 641.1828743740199 0 0 1
17 1 1 0 663.0738604600721 677.6016993116131 680.0698736528926 0 0 0
241 1 1 0 671.0889781132169 649.5151878358893 644.9754923659029 0 0 0
299 1 1 0 666.0496153904239 679.4679925211908 677.8239249656795 0 0 0
249 1 1 0 679.7062937987238 654.0214266620362 651.2268737106607 0 0 0
2366 1 1 0 678.7590218744465 676.6260134562381 674.0100225523339 0 0 0
1241 1 1 0 661.7188522979184 677.1143946679953 679.9045396583716 0 0 0
240 1 1 0 664.0792973716398 676.9241435539435 679.4830026210253 0 0 0
151 1 1 0 674.2058632656685 651.0721862062106 646.235834013465 0 0 0
41 1 1 0 670.4450323886714 652.9335717755331 646.2246378136235 0 0 0
227 1 1 0 673.1502229423231 652.1638667835734 645.8079035704013 0 0 0
130 1 1 0 673.2269503853261 648.5001554805259 646.5107626273042 0 0 0
232 1 1 0 669.7018040089293 650.8752988329829 641.0464215514061 0 0 0
308 1 1 0 664.006454987546 679.3307157561153 674.9862931065613 0 0 0
261 1 1 0 665.8105353719025 679.8886271643204 673.4300096927775 0 0 0
125 1 1 0 663.351710239599 679.6575543716259 676.1218132981891 0 0 0
2313 1 1 0 678.6668111658892 669.6097730013829 677.4016478909898 0 0 0
102 1 1 0 671.2034317180605 655.0825868817672 645.3771734482931 0 0 0
189 1 1 0 675.8157318103439 678.8694422807816 669.8769133027255 0 0 0
350 1 1 0 673.6317648466479 652.2386185298463 641.683062822515 0 0 0
3118 1 1 0 660.6069645251047 679.0666818663665 668.578956502422 0 0 0
3117 1 1 0 662.8726369889915 679.9138660953689 669.3690853420234 0 0 0
1303 1 1 0 655.5721077318402 673.7410953255043 642.2080113237304 0 0 1
302 1 1 0 665.2033828471738 680.0951825010027 674.6722568476322 0 0 0
185 1 1 0 676.5324126647059 678.8814274624563 667.1609959030137 0 0 0
187 1 1 0 675.3219084897873 679.4010734299779 667.6669352569073 0 0 0
307 1 1 0 668.3166311306665 678.328301425214 672.1480152292936 0 0 0
314 1 1 0 671.6417793343161 652.9835802455175 643.9075740490192 0 0 0
215 1 1 0 679.3333583514146 669.6575311326243 648.8791026199887 0 0 0
343 1 1 0 677.2515033333768 651.8505596325303 648.5720641187629 0 0 0
294 1 1 0 664.9911225298976 677.5868977741691 673.7029484779342 0 0 0
177 1 1 0 667.209163186342 676.9381735734562 673.8868732031941 0 0 0
2502 1 1 0 678.2494918675393 672.6402604042552 675.1234124213833 0 0 0
251 1 1 0 666.454449862626 675.3832658782324 676.0381220235672 0 0 0
104 1 1 0 671.4247799059567 655.9944779461772 644.2496452285195 0 0 0
291 1 1 0 674.6090478159451 654.782628532398 644.7328404420188 0 0 0
188 1 1 0 674.869825545105 679.4819574074012 669.0086851698921 0 0 0
363 1 1 0 672.3384878226968 649.0422307171298 644.3261280905293 0 0 0
180 1 1 0 672.3260344741115 679.8316254988777 669.8867777755225 0 0 0
360 1 1 0 673.4446394011584 648.9913684155359 645.1850932780085 0 0 0
296 1 1 0 664.0086915033517 677.9874794468878 674.6097394333502 0 0 0
344 1 1 0 674.3327937111043 649.9822407937105 645.0790387005842 0 0 0
279 1 1 0 666.299172410438 676.6762899121272 678.4393736840326 0 0 0
1288 1 1 0 665.4288878849384 673.3375845597582 676.9883953428011 0 0 0
3116 1 1 0 661.6487167511771 680.0297286778816 668.3544875916092 0 0 0
2530 1 1 0 678.6661738750363 675.7455461778487 672.887211864516 0 0 0
260 1 1 0 670.9220124910948 653.6750587246611 645.1079706616943 0 0 0
1756 1 1 0 661.1518698038311 674.203855057512 642.2365708028307 0 0 1
265 1 1 0 670.9003732254592 650.9454702418265 645.2783589491644 0 0 0
150 1 1 0 679.5425593445785 648.4028385638155 668.0619532761655 0 0 0
3108 1 1 0 662.1654457716855 679.6062878235269 666.1595880958948 0 0 0
211 1 1 0 672.0283099416521 651.8381282087036 645.0696528906859 0 0 0
176 1 1 0 665.791294072716 676.4640473929444 674.107134878604 0 0 0
164 1 1 0 670.2053083718563 679.8428130411784 671.4785373588429 0 0 0
306 1 1 0 669.2362344739245 679.3895079391184 672.3820585383999 0 0 0
284 1 1 0 667.9299547371324 677.0874185651619 675.1624507709481 0 0 0
285 1 1 0 662.3292417680442 678.8789167167297 676.591812434879 0 0 0
206 1 1 0 673.1291348320467 656.6326212416777 642.464258288659 0 0 0
165 1 1 0 671.2073114401356 679.700886015335 670.619865295658 0 0 0
312 1 1 0 677.4149109406685 653.2626088502731 648.3688615028125 0 0 0
2724 1 1 0 679.673763448755 651.9265859540145 678.5898828978297 0 0 0
1506 1 1 0 659.7686279043483 676.545394549938 641.1933502098686 0 0 1
2487 1 1 0 678.8585116317669 673.3219633497563 672.9440997807484 0 0 0
3198 1 1 0 667.9393201686694 679.9169734068687 654.4438768869895 0 0 0
101 1 1 0 661.4358829251833 679.3414787360554 677.6039637268078 0 0 0
202 1 1 0 662.48071320369 677.4944453910796 676.4587007193313 0 0 0
2375 1 1 0 679.4849094675862 675.7535229623338 671.5900911979154 0 0 0
1385 1 1 0 657.811593547364 672.0423079157889 642.1381165263274 0 0 1
353 1 1 0 665.3921909281598 675.6530706812558 675.1344699236846 0 0 0
1594 1 1 0 656.7425527790393 675.6649533872669 641.4742377267389 0 0 1
159 1 1 0 673.5138100357542 654.7843869147981 643.8730561179266 0 0 0
316 1 1 0 679.0367705562696 653.3549673341458 650.2025751092978 0 0 0
155 1 1 0 679.9555976974325 646.6283432539786 669.8716348571044 0 0 0
29 1 1 0 677.5988525884115 651.4223392759112 649.8834446199581 0 0 0
127 1 1 0 668.6383738475516 678.300143127181 675.4716747706032 0 0 0
2058 1 1 0 679.9068981624906 650.4269785273674 680.3067170887289 0 0 0
583 1 1 0 679.6688514146808 669.3007100114464 647.5330354428178 0 0 1
354 1 1 0 671.4666091585754 649.882794403924 642.1681518098931 0 0 0
631 1 1 0 679.3747342178959 667.8030239736923 642.4413155274615 0 0 1
205 1 1 0 674.924759216675 651.8831826336328 643.6012366839695 0 0 0
1 1 1 0 664.0412379719604 675.725866804022 675.5810625609139 0 0 0
2568 1 1 0 678.2672585676008 674.3262674169013 675.1630115991817 0 0 0
113 1 1 0 679.6172192346829 672.329907559085 662.4664921869687 0 0 0
1109 1 1 0 663.0393311961905 675.5150028265863 677.8509617461027 0 0 0
236 1 1 0 673.0884537651775 653.4885537356502 643.5233397251424 0 0 0
254 1 1 0 669.6547715619766 678.8919182174355 674.662222760171 0 0 0
266 1 1 0 667.9316417168623 679.2325228494675 676.2444846676354 0 0 0
174 1 1 0 677.9557450100851 675.8517653786091 665.7235407600684 0 0 0
267 1 1 0 667.0142018802835 677.2780166985228 677.3669154600658 0 0 0
298 1 1 0 669.1555983227959 679.8237031416874 673.7227315421092 0 0 0
105 1 1 0 672.6561753420807 655.926423515272 643.5273805020424 0 0 0
245 1 1 0 660.567251181551 678.3935084418578 678.2060013778154 0 0 0
168 1 1 0 679.3135824922645 676.109407344352 667.7072426245365 0 0 0
191 1 1 0 675.949818481023 677.4268297513285 669.8372976336043 0 0 0
2515 1 1 0 679.4898077447191 673.9032431542448 676.127641120166 0 0 0
192 1 1 0 677.0800416800253 676.9230109650148 669.0827512340464 0 0 0
282 1 1 0 665.2851648074072 677.5504523415776 678.9769512880989 0 0 0
352 1 1 0 673.7550452155691 650.8444530308868 641.4507103324682 0 0 0
253 1 1 0 667.1074279787337 678.6800058258469 677.25665284269 0 0 0
75 1 1 0 663.5580286007176 674.860033196348 676.5995783489489 0 0 0
2769 1 1 0 662.7213793771408 680.2145848902187 658.5099709071435 0 0 0
2 1 1 0 679.30426791778 651.4001296906213 651.6029106825351 0 0 0
252 1 1 0 667.2941449067865 676.4804313642852 676.2431910744668 0 0 0
1488 1 1 0 659.1955265890234 672.155307299515 641.9513064721464 0 0 1
359 1 1 0 659.5107052162386 678.9984697478335 678.894724536793 0 0 0
283 1 1 0 670.807906259683 652.291365576565 642.7697006071962 0 0 0
167 1 1 0 678.4872774324656 653.8080613675858 649.0268077787516 0 0 0
920 1 1 0 664.077730847607 673.5472722399803 676.7564501115494 0 0 0
74 1 1 0 662.1656756627516 676.6490643224661 677.6325602234516 0 0 0
3016 1 1 0 662.468318349198 680.0784105264528 664.7432375193375 0 0 0
2738 1 1 0 666.7098288680851 680.1988164932453 663.3999286559895 0 0 0
2751 1 1 0 663.420437687776 679.316274431284 657.780609476773 0 0 0
340 1 1 0 672.5414536169889 649.4979234245724 642.9879470048237 0 0 0
2367 1 1 0 677.8855911074547 670.6755396917384 677.0325668090444 0 0 0
2339 1 1 0 678.6946736584719 675.9229099693894 675.2724888545985 0 0 0
173 1 1 0 676.9163330084807 676.6034136023738 667.7339430556648 0 0 0
27 1 1 0 678.2958919370901 650.6226915836968 652.2589011171378 0 0 0
193 1 1 0 678.0580216420934 679.0412653579024 669.0682939942016 0 0 0
207 1 1 0 678.8537080353259 651.9797442852448 650.404631650198 0 0 0
190 1 1 0 677.0572428944971 679.5267982642638 669.96682444562 0 0 0
183 1 1 0 677.7332828363307 679.4060741511101 667.7076584748532 0 0 0
292 1 1 0 674.0300323753831 652.6791369078428 642.8882095021404 0 0 0
1276 1 1 0 663.819895819647 675.5875014670735 679.0358680990817 0 0 0
290 1 1 0 666.2485365787777 674.5137796678101 677.1821224723282 0 0 0
1121 1 1 0 661.2306677963985 677.1809383720681 678.5644608846579 0 0 0
115 1 1 0 678.7109310995035 674.2617245119641 663.9366220343359 0 0 0
220 1 1 0 659.8726372846829 680.0810064748729 679.7657663602024 0 0 0
2426 1 1 0 678.1801645244728 671.9305878887444 676.3038184662636 0 0 0
335 1 1 0 679.9073120851984 650.8205735783714 661.4043626927895 0 0 0
200 1 1 0 673.8125410613321 650.0383119194644 642.64377205634 0 0 0
114 1 1 0 679.2191702158499 673.691633260753 662.7796116025819 0 0 0
172 1 1 0 678.0426853205865 675.8484416032381 667.1450561553335 0 0 0
310 1 1 0 666.0984385152211 675.2710497277369 678.4092638214737 0 0 0
275 1 1 0 670.4512429608887 650.9117241152211 642.402102755725 0 0 0
2322 1 1 0 678.7329330378984 672.1813115324776 673.8655268035466 0 0 0
194 1 1 0 678.2873030284941 677.6565296919789 669.2192913956658 0 0 0
1051 1 1 0 664.9868118735116 674.8364878035269 679.1674614614793 0 0 0
289 1 1 0 665.3001096747045 679.0091066427586 678.93348076757 0 0 0
355 1 1 0 670.3631451140039 653.0713082884378 641.6674354952652 0 0 0
331 1 1 0 679.7747448502575 650.2402087917709 662.7331509157866 0 0 0
171 1 1 0 678.9379562583564 675.1142759563886 665.0277094900565 0 0 0
118 1 1 0 679.7542573250907 651.1439130996652 663.8098466362281 0 0 0
51 1 1 0 672.5969524531195 657.6049628680272 641.4084965170334 0 0 0
257 1 1 0 664.101858915166 679.6720687373082 679.3857019467908 0 0 0
1591 1 1 0 656.8966226012333 672.1791468036612 641.0343820782459 0 0 1
1471 1 1 0 657.1743026702749 678.0365106176715 641.1045682660666 0 0 1
684 1 1 0 677.8447966368338 664.3763309070774 718.878797647682 0 0 0
612 1 1 0 669.3525932278362 652.6677177873236 718.0518299306611 0 0 0
380 1 1 0 646.3275747562479 671.8781091575019 698.1746304348954 0 0 0
381 1 1 0 646.5261490901312 674.0800232482635 698.9936991160337 0 0 0
382 1 1 0 645.7235054274223 672.9181193963441 698.9427783476773 0 0 0
1538 1 1 0 657.9258526770955 678.1085875209709 715.1515676568972 0 0 0
1443 1 1 0 653.9188414329683 676.5786300805675 718.9326690421199 0 0 0
385 1 1 0 643.5100734818748 665.3959731971919 715.8598516625733 0 0 0
386 1 1 0 644.8716327094254 665.7393623054483 715.8643059953905 0 0 0
605 1 1 0 644.0651814850764 674.3624063338101 698.1990009376948 0 0 0
851 1 1 0 670.2694752151461 650.4941561557407 717.3515270809355 0 0 0
389 1 1 0 645.5261500461295 663.4385782388514 714.7632382969401 0 0 0
390 1 1 0 646.7463922708371 664.379368241844 714.9228149367221 0 0 0
391 1 1 0 644.3631361458347 663.3197029087538 713.9218112916982 0 0 0
392 1 1 0 644.6140301726582 663.1517274338188 712.3810849815484 0 0 0
393 1 1 0 648.5949267739229 678.108877692674 698.8014882144205 0 0 0
2712 1 1 0 643.2946708317116 678.100527222089 703.965486288819 1 0 0
1414 1 1 0 650.2893520421283 679.8792791116002 708.3479037791351 0 0 0
396 1 1 0 645.4337653584935 677.9627054404178 697.4576720155208 0 0 0
2285 1 1 0 640.7527125616815 679.8475444247786 707.6989876943713 1 0 0
1755 1 1 0 649.7616710277498 679.5839940970798 695.2065660446405 0 0 0
1685 1 1 0 652.6138526543236 679.790123398195 698.1518006973744 0 0 0
632 1 1 0 644.7430218564506 670.2056371872193 696.0944264648564 0 0 0
2333 1 1 0 643.2729977429155 677.5612060613607 705.1757466775198 1 0 0
402 1 1 0 646.035049050712 672.1955160568843 695.6917658838078 0 0 0
1548 1 1 0 657.1228388340576 674.3921289560049 711.2862016368914 0 0 0
404 1 1 0 648.2596885795723 672.2143509834045 696.6203115401557 0 0 0
864 1 1 0 643.9210334987234 674.7500046150913 696.8117755909861 0 0 0
1537 1 1 0 658.818211149885 676.9456624109433 713.2111094399605 0 0 0
2538 1 1 0 640.8830844106184 676.1171122839131 711.0878402004437 1 0 0
2334 1 1 0 641.2041090713265 676.8113482119184 709.9421055223792 1 0 0
1785 1 1 0 649.0357527226558 678.3554024413281 695.4387388418104 0 0 0
3719 1 1 0 643.2496115313714 677.8147151734349 701.5930843736406 1 0 0
1300 1 1 0 660.7172032398212 680.149945310948 685.8567828222401 0 0 0
412 1 1 0 675.8628703408601 659.8557595255272 718.5335162175169 0 0 0
1527 1 1 0 651.061035657999 674.3942740962488 712.7485827257278 0 0 0
3584 1 1 0 642.8662721823856 679.1423031272211 701.5471822506307 1 0 0
832 1 1 0 678.5605434445905 662.4221324572582 713.5703116265663 0 0 0
1533 1 1 0 656.5439584456898 673.6363093489238 712.4419684418876 0 0 0
799 1 1 0 647.7451130471147 678.87071582337 699.571782490818 0 0 0
1319 1 1 0 653.9784727057323 678.4231309108549 705.815200708782 0 0 0
1607 1 1 0 653.949992960332 679.5667812024469 700.1404310605145 0 0 0
1465 1 1 0 656.6551267817695 672.5838545238915 717.1469716912018 0 0 0
1559 1 1 0 654.1666521262758 677.8711337792294 715.5755495047995 0 0 0
706 1 1 0 677.3923324086254 661.5641963398957 716.3109334182102 0 0 0
826 1 1 0 644.0563879983863 673.6325980739663 695.9234671743508 0 0 0
2713 1 1 0 642.5720026809634 679.7363003935775 706.1995483038841 1 0 0
607 1 1 0 646.4989039086436 678.1026084102583 699.6148896432869 0 0 0
1564 1 1 0 654.4022163765343 675.9148597124912 708.644054516508 0 0 0
427 1 1 0 675.9331677304574 658.498655634613 718.5092093603143 0 0 0
865 1 1 0 645.3892800140208 673.4501567652223 695.4561231338714 0 0 0
1544 1 1 0 653.3366759357234 675.144789518718 712.5185539677869 0 0 0
852 1 1 0 672.9135568339753 653.3452989513066 715.7446733159485 0 0 0
1295 1 1 0 651.2194193461429 677.7595041352112 705.655756106078 0 0 0
881 1 1 0 645.5614548210996 678.6948895434281 698.6911146391509 0 0 0