LAMMPS data file via write_data, version 2 Aug 2023, timestep = 50000, units = metal

4560 atoms
1 atom types

648.9435009424143 715.236499057583 xlo xhi
649.3095353417938 715.5794646582132 ylo yhi
649.46026728224 715.4287327177669 zlo zhi

Masses

1 12.0107

Atoms # full

2533 1 1 0 680.770921505299 673.028926479113 674.5643894427197 0 0 0
179 1 1 0 679.3777318395586 670.6625580686006 678.9639987307111 0 0 0
2719 1 1 0 678.1489926342991 667.653242332736 673.884607244188 0 0 0
1708 1 1 0 680.5074672282559 650.5979626539324 658.878072638568 0 1 0
999 1 1 0 668.0319969356527 655.7072976542623 651.6698473759036 0 0 1
6 1 1 0 677.1151157216366 673.8395182177551 678.3812988802858 0 0 0
320 1 1 0 653.2994836659127 649.563326422506 663.2967619494592 0 0 0
8 1 1 0 651.2328871447855 678.6833121416885 680.9186907938478 0 0 0
9 1 1 0 662.8759894144698 663.7250886450482 654.5900321556961 0 0 0
10 1 1 0 661.7291434757896 664.6311554367625 654.446490057202 0 0 0
11 1 1 0 656.4353371744501 674.1394569406257 663.8977312890855 0 0 0
12 1 1 0 651.622770706505 680.0159082753222 677.6797811471195 0 0 0
182 1 1 0 654.0545487447133 674.2482516161043 666.2695639016524 0 0 0
333 1 1 0 679.506709425813 669.6859830576193 677.9287611386518 0 0 0
85 1 1 0 681.1053133092142 669.9468995503393 655.7812571069798 0 0 0
1618 1 1 0 661.328823473074 678.0453026414641 656.534297801868 0 0 0
519 1 1 0 653.3844966673329 650.3581395426901 664.4696983637838 0 0 0
31 1 1 0 664.5831274595294 663.7679057174835 650.9213230156308 0 0 0
2565 1 1 0 678.6529841596906 670.2845594409855 673.128477399641 0 0 0
20 1 1 0 663.0699571895057 662.8419379931096 653.5352694451152 0 0 0
21 1 1 0 661.9356818921412 666.2332725298965 652.6783939882057 0 0 0
1562 1 1 0 677.2451281516678 650.9187984371309 662.1130679081269 0 1 0
5 1 1 0 649.3129715008487 649.553713337719 678.2395890572708 0 0 0
1716 1 1 0 676.1589013419949 651.3609134769472 660.0584169140224 0 1 0
151 1 1 0 677.3492894459005 673.580680715553 679.7447719150455 0 0 0
26 1 1 0 662.3194651624103 661.4971576191631 651.6513865956293 0 0 0
2732 1 1 0 678.409041276046 667.9183336846421 672.5445778525831 0 0 0
4128 1 1 0 649.9237013816208 650.4476201872825 653.2797188066057 1 1 0
553 1 1 0 660.8942579165321 678.3059414318016 655.191128340333 0 0 0
30 1 1 0 675.6812435238012 668.5800414007907 657.2728043747074 0 0 0
161 1 1 0 681.4203323050609 658.4863415858292 660.5805628817175 0 0 0
32 1 1 0 674.7768583448963 668.6337433686475 656.1855907604153 0 0 0
33 1 1 0 673.4608333525493 668.9997078202571 656.0658021887667 0 0 0
34 1 1 0 669.2054721298539 666.796283253089 653.3578706617683 0 0 0
35 1 1 0 672.8567825619739 668.6159673469564 654.7848016576748 0 0 0
539 1 1 0 651.7201405932531 666.4045959637425 651.9265824924377 0 0 0
37 1 1 0 662.0922578804061 676.7721098058482 656.6800673598441 0 0 0
38 1 1 0 671.8998176490833 667.3101881410745 657.646247063401 0 0 0
39 1 1 0 674.4658912448776 666.3518954066335 657.9240656815077 0 0 0
40 1 1 0 673.0624002419298 666.5077716147324 657.5236007822156 0 0 0
41 1 1 0 655.5142919522913 651.8978718877644 669.8158607312212 0 0 0
42 1 1 0 672.9714041092076 665.728270026133 656.2463089838851 0 0 0
43 1 1 0 652.9007970258774 680.0403552746583 679.83422863349 0 0 0
3012 1 1 0 678.0530635780303 670.001020416396 674.3982033348266 0 0 0
1343 1 1 0 670.4385963669721 650.5188207595168 664.772393324502 0 1 0
2539 1 1 0 680.7514597050786 671.2273339566387 672.4770350400635 0 0 0
1284 1 1 0 665.994070902824 650.0699208994281 665.2732819534419 0 1 0
48 1 1 0 680.7159072395581 667.855050510898 654.6077687527339 0 0 0
49 1 1 0 679.3492602424255 667.9389254060583 654.5063895933347 0 0 0
50 1 1 0 678.8355838520466 669.0476601987856 655.2283638020409 0 0 0
51 1 1 0 677.4642128856974 668.873584596232 655.6516254056561 0 0 0
52 1 1 0 677.0668681330689 669.0269983307594 656.984413050501 0 0 0
1648 1 1 0 678.375203551232 650.7166151857795 659.9825759807213 0 1 0
2787 1 1 0 681.8320597514399 669.139455960322 657.8879821689243 0 0 0
54 1 1 0 681.0929988787176 664.7911973663762 656.8223908295655 0 0 0
56 1 1 0 680.4640294747312 663.8810695939047 657.6741769050634 0 0 0
57 1 1 0 680.203286840025 661.8158255572382 658.7078028999852 0 0 0
58 1 1 0 678.7977006131613 661.8972368304037 658.939488105636 0 0 0
59 1 1 0 680.4943028775334 666.1719256245208 656.4578398027941 0 0 0
60 1 1 0 679.1414075993503 665.9643312797023 655.7307021429764 0 0 0
61 1 1 0 679.15953472148 664.0915043803415 658.2212677917177 0 0 0
62 1 1 0 678.2670989672213 665.3143070423561 656.4914821602205 0 0 0
63 1 1 0 678.2254733801967 663.0701002734282 658.4548391098833 0 0 0
64 1 1 0 676.9329087056115 663.461638908437 658.0536411506098 0 0 0
65 1 1 0 678.6538824688225 666.7232261279983 654.7210160317288 0 0 0
66 1 1 0 677.2336852523767 666.7530612177504 654.6081232854983 0 0 0
67 1 1 0 677.0168325485827 664.9102353447892 656.0869833725652 0 0 0
68 1 1 0 676.4497949971984 665.6162873371653 655.0322435732658 0 0 0
69 1 1 0 676.2117616269537 664.3495079800381 657.1547511504909 0 0 0
70 1 1 0 674.9907582719167 665.1214862705075 657.2338574245241 0 0 0
71 1 1 0 676.6434928277838 667.9767055340529 654.8866716883042 0 0 0
72 1 1 0 675.2761466255155 668.0421587667377 654.9919156846005 0 0 0
73 1 1 0 675.0268011037707 665.6549801299813 654.8202113932766 0 0 0
2635 1 1 0 679.5503940645217 672.3265210810633 674.3199266628815 0 0 0
75 1 1 0 652.2934328178196 678.674063746113 680.010433005191 0 0 0
76 1 1 0 676.6905483652047 667.3436857618782 659.0812480739108 0 0 0
77 1 1 0 675.5605558303178 667.4221379494454 658.2235324646459 0 0 0
1069 1 1 0 666.2358108942317 662.6862763396884 649.6381417224251 0 0 1
79 1 1 0 661.0768998536269 663.6219897169295 652.3863850820978 0 0 0
80 1 1 0 669.3237581940232 669.4969590892878 654.1387453140811 0 0 0
81 1 1 0 666.6405097781974 669.7518957036207 654.785278062254 0 0 0
253 1 1 0 678.9669779898765 659.3380686927482 671.822276301064 0 0 0
23 1 1 0 665.3885060333458 659.1966165272008 651.3673110453719 0 0 0
84 1 1 0 671.8546524837823 670.9932525455563 670.4046662547222 0 0 0
140 1 1 0 681.4639626963186 657.0990734393216 660.4955921788538 0 0 0
86 1 1 0 679.7355175774902 669.6416534454529 656.1487362265278 0 0 0
87 1 1 0 680.6454892941895 668.3371614946902 657.9002659631636 0 0 0
88 1 1 0 680.2464813611032 666.9821339797261 657.7564772883155 0 0 0
89 1 1 0 679.516485902568 669.2059676875699 657.5095401695994 0 0 0
90 1 1 0 678.1639519819346 668.8078022099639 657.9015311665106 0 0 0
91 1 1 0 679.0034767399079 666.5846803217448 658.3454335508629 0 0 0
92 1 1 0 678.5781596751665 665.3129573811276 657.8387974685627 0 0 0
93 1 1 0 678.0145706958444 667.5899123844101 658.6417766479931 0 0 0
3 1 1 0 656.913193650137 654.6952880215512 676.5249027690664 0 0 0
95 1 1 0 670.0352941462237 670.1495025087053 656.3761898337872 0 0 0
96 1 1 0 673.1149645261855 667.2636876787682 654.4754126794975 0 0 0
1197 1 1 0 669.527575562849 652.755586956553 665.2698105906986 0 1 0
98 1 1 0 659.6311020090697 674.3992163949924 657.0794949256717 0 0 0
99 1 1 0 656.8030299465694 672.3470214820387 660.7054012237553 0 0 0
100 1 1 0 656.4095564492985 671.0760678884487 660.1905700295542 0 0 0
101 1 1 0 656.1223250914474 672.7285790349817 661.9525361083741 0 0 0
102 1 1 0 655.65243692941 671.5855928949221 662.674917221388 0 0 0
103 1 1 0 655.3524827485486 673.2888513415113 664.415275361023 0 0 0
104 1 1 0 655.333255359693 671.843858415387 664.0430069478052 0 0 0
105 1 1 0 655.0842064640752 673.4888400817866 665.7629254552782 0 0 0
106 1 1 0 656.0703470403405 672.709222247583 666.4681434554694 0 0 0
107 1 1 0 656.190942004205 669.8896220993905 660.9888074251463 0 0 0
108 1 1 0 656.4080377385867 668.551471504967 660.7627561754813 0 0 0
109 1 1 0 656.0109665360851 670.2325558819643 662.3763513592169 0 0 0
110 1 1 0 657.3047153063065 667.7443303030633 661.4788564668388 0 0 0
111 1 1 0 657.7515172873814 666.5131101347123 661.0419547845372 0 0 0
112 1 1 0 657.6284225846005 668.4199554074462 662.7015996197052 0 0 0
113 1 1 0 656.7092460410897 669.3886252200883 663.2731886202929 0 0 0
114 1 1 0 655.7653419175905 670.8168721364272 665.0380401511228 0 0 0
115 1 1 0 656.7110307964608 669.8142856412867 664.6124139315951 0 0 0
116 1 1 0 655.9568802692356 671.2773331899068 666.5046015641082 0 0 0
117 1 1 0 656.949466020067 670.6692366846084 667.411375127287 0 0 0
118 1 1 0 658.965555112561 668.5943886991197 662.9706357083146 0 0 0
119 1 1 0 657.9792356455712 669.8921761561861 665.2382024019823 0 0 0
120 1 1 0 659.7646212538272 669.5349711741984 663.5908780800835 0 0 0
121 1 1 0 658.0738130882214 670.0851861590043 666.6573035724256 0 0 0
122 1 1 0 659.3688961689547 670.3500978426179 667.2071095938687 0 0 0
251 1 1 0 649.7388804448007 679.0290677183964 679.034287334103 0 0 0
124 1 1 0 651.8864192891655 677.914297711233 678.7726459422776 0 0 0
125 1 1 0 669.0616786972467 670.251962855098 655.3032156998199 0 0 0
2743 1 1 0 679.9625175990899 664.4760091968232 671.9379562335072 0 0 0
127 1 1 0 654.8456772207612 651.8075060940297 671.0609365847891 0 0 0
128 1 1 0 663.6910430782923 665.648779500805 655.9188775043176 0 0 0
389 1 1 0 668.757587448728 676.0864798119756 680.7903314439931 0 0 0
130 1 1 0 651.4462354371416 676.5499824020659 679.0249086843535 0 0 0
131 1 1 0 664.7078719737273 667.5997147445921 657.1895041751504 0 0 0
132 1 1 0 664.4448357931159 668.3715863226595 655.8744431056502 0 0 0
133 1 1 0 651.3178716302444 674.8474778093636 681.2606767344101 0 0 0
524 1 1 0 666.4564289339834 676.0074182882279 681.6542506849589 0 0 0
135 1 1 0 676.943383638604 657.3074063811084 660.4034021499066 0 0 0
136 1 1 0 677.4969342536989 656.7985197632082 663.2820467810203 0 0 0
574 1 1 0 652.0085295835172 665.0195907074675 651.6255242554195 0 0 1
252 1 1 0 679.3788066577201 660.564995639138 672.0109404305526 0 0 0
2967 1 1 0 679.7485724295485 663.108282851296 672.7498148457555 0 0 0
363 1 1 0 660.0310308586206 674.0256635559455 681.8359047743212 0 0 0
141 1 1 0 679.871029567193 655.2983814785631 660.0820393359011 0 0 0
142 1 1 0 678.4576618580985 655.3564270638448 659.9212807357702 0 0 0
143 1 1 0 680.3746070848981 656.3640640643955 660.986275972287 0 0 0
144 1 1 0 679.5085569768057 656.9273125061118 661.934209366633 0 0 0
145 1 1 0 677.6472989457822 656.1329227846127 660.8117996202645 0 0 0
146 1 1 0 678.2182076672816 656.2692634875496 662.1234516033577 0 0 0
147 1 1 0 659.1075535373755 671.8782273121902 664.3857272208375 0 0 0
148 1 1 0 659.0879387086909 670.4786456347481 664.4495412259467 0 0 0
149 1 1 0 658.116764674809 672.4506629457353 665.1166194502931 0 0 0
150 1 1 0 657.4777586685923 673.0336407618662 666.1831319947622 0 0 0
247 1 1 0 673.7496671074722 649.5857020758291 677.1540266967061 0 0 0
1201 1 1 0 667.5139211274983 651.7043350840082 665.694501862911 0 1 0
153 1 1 0 663.5501351722412 676.863436135091 650.0420849568095 0 0 0
154 1 1 0 670.4516897414262 668.6489967221127 654.1430768337385 0 0 0
155 1 1 0 664.8636340619754 666.2555867575079 656.6011444706419 0 0 0
156 1 1 0 662.1080901763838 678.6054408412501 650.2401236350335 0 0 0
157 1 1 0 677.3381835744498 658.2064811305293 663.1311756375236 0 0 0
158 1 1 0 677.2105044441303 658.6892735028191 660.7919211618855 0 0 0
159 1 1 0 671.6125353875477 669.2290981882985 654.6758463377621 0 0 0
287 1 1 0 650.6338964378008 651.5493027647817 677.7977428545742 0 0 0
542 1 1 0 665.2259235191286 662.4824026022882 650.7029235858121 0 0 0
162 1 1 0 680.2167230089556 659.0532589077377 660.9805019919587 0 0 0
163 1 1 0 679.3701780495262 658.3749191935701 661.8540540796711 0 0 0
164 1 1 0 677.9952893536432 658.7738393981577 662.0148046493292 0 0 0
1200 1 1 0 668.7284363130884 652.176263912504 666.254298428331 0 1 0
166 1 1 0 680.7640889100351 660.8340912544535 659.5119869280257 0 0 0
167 1 1 0 679.76217049402 660.1373233586467 660.1883505146036 0 0 0
168 1 1 0 678.446320198776 660.6797362196417 659.7776817908277 0 0 0
169 1 1 0 677.3415809734657 659.8258274011533 659.9524262386605 0 0 0
170 1 1 0 677.870803932392 656.5703673234223 667.7973303070651 0 0 0
171 1 1 0 678.0310610500796 655.9579851383404 666.5971152443146 0 0 0
172 1 1 0 676.6281085488329 656.2720542848438 668.4806129296342 0 0 0
173 1 1 0 677.0099458037463 655.6732494221992 665.6961789873716 0 0 0
174 1 1 0 677.082247652014 655.9858688885076 664.3364573228523 0 0 0
175 1 1 0 675.7154859348041 655.446682816207 666.2571188564059 0 0 0
176 1 1 0 675.4836561309406 655.9934538281652 667.5944928714418 0 0 0
177 1 1 0 674.8189648140657 654.3236300401526 666.1065815572501 0 0 0
382 1 1 0 650.1876126023172 681.5254309619042 679.8925252411825 0 0 0
339 1 1 0 678.5670387341723 665.2323687105788 673.6180831747087 0 0 0
180 1 1 0 665.8283358475711 665.6121464698025 654.4532291353108 0 0 0
129 1 1 0 663.6740853977739 674.6341113302108 681.4708710072749 0 0 0
293 1 1 0 653.2926064921678 652.1843778933779 675.3349582368867 0 0 0
369 1 1 0 660.9368495202004 664.5678791419001 651.3334585877776 0 0 0
184 1 1 0 674.524569358973 666.9751419994786 654.4168296907585 0 0 0
185 1 1 0 658.2142127621348 673.6925582947949 661.9993260278867 0 0 0
186 1 1 0 659.3610798476437 673.6364793568532 662.7641447074647 0 0 0
187 1 1 0 674.7691972690709 653.83280794954 673.344768760255 0 0 0
188 1 1 0 674.1752052413887 653.0346820701548 671.9720987243969 0 0 0
189 1 1 0 674.3122405416525 655.1654081182834 672.4536417296426 0 0 0
190 1 1 0 672.839958022969 653.1763410886001 672.7058103955912 0 0 0
191 1 1 0 672.181668842511 652.5460596775008 673.7560889801862 0 0 0
192 1 1 0 672.112137329202 654.2866407518054 672.2390532806162 0 0 0
193 1 1 0 670.7982322948324 652.4605147473478 673.5951371250218 0 0 0
194 1 1 0 670.188643763398 652.2695701308405 674.8318307738538 0 0 0
195 1 1 0 670.3587426050598 652.6657158460409 672.2403816842856 0 0 0
196 1 1 0 672.9942729552738 655.3178949792609 671.7859801178179 0 0 0
197 1 1 0 673.9446920799636 655.3137967269871 669.4663762552991 0 0 0
198 1 1 0 672.8077951924752 655.6210523435345 670.3369773893241 0 0 0
199 1 1 0 674.2832599582221 655.294004289825 668.0833980867321 0 0 0
200 1 1 0 674.0107730062473 654.1144441167214 667.3286885991731 0 0 0
201 1 1 0 670.9252647469859 653.8724433004762 671.6246412133248 0 0 0
202 1 1 0 671.563563890373 655.2109514059285 669.813965869026 0 0 0
203 1 1 0 671.1882961961463 653.921224374615 670.2523731502852 0 0 0
204 1 1 0 674.9007991536838 654.5182178197666 670.1207763054082 0 0 0
205 1 1 0 674.3058017386112 653.2353406844003 670.5478556454469 0 0 0
206 1 1 0 670.2859606454374 651.5721223939614 671.2720512711346 0 0 0
207 1 1 0 671.8356595747297 652.7022247240673 669.8516505868225 0 0 0
208 1 1 0 671.0804306805609 651.5169762322058 670.1414399489915 0 0 0
209 1 1 0 673.260869529894 652.7809892696372 669.5055473363545 0 0 0
210 1 1 0 673.686161894506 653.002145724715 668.1486550855723 0 0 0
211 1 1 0 676.6716539924306 656.2682398721162 669.9038175744877 0 0 0
212 1 1 0 677.4590439540707 657.1710118790771 670.6515419026865 0 0 0
213 1 1 0 675.8586674750093 655.3572868063238 670.6909098565133 0 0 0
214 1 1 0 675.4399603783805 655.8157079561876 671.9452451495961 0 0 0
215 1 1 0 677.3365857960875 657.106170839326 672.2388761651033 0 0 0
216 1 1 0 676.4996469432393 656.2071505357634 672.7936786662631 0 0 0
217 1 1 0 676.7506189749107 655.3253163272154 673.8898193312612 0 0 0
218 1 1 0 656.1437820203424 655.1671188481804 671.6927671365744 0 0 0
219 1 1 0 655.8472838826009 653.8529389684512 671.8078969071605 0 0 0
220 1 1 0 656.2527282642594 656.2323111108348 672.5654933243154 0 0 0
2759 1 1 0 678.8561285744189 672.9336487610549 676.5464651117486 0 0 0
222 1 1 0 678.3178132528545 658.2240272194392 671.5596612095493 0 0 0
2561 1 1 0 680.5101751119082 671.5760613576373 679.0123354297785 0 0 0
224 1 1 0 654.9938277694596 652.7634770793222 672.0145368756295 0 0 0
1560 1 1 0 673.847992691104 650.5770731572557 662.5641723734384 0 1 0
622 1 1 0 665.5670108005429 652.8100763048639 680.8924090888997 0 0 0
227 1 1 0 659.2184807572195 674.0601307817352 669.3844282326309 0 0 0
228 1 1 0 658.6186916265145 673.7352967103766 668.1223931311146 0 0 0
229 1 1 0 658.6742027385554 673.5117462543839 670.6796709764631 0 0 0
230 1 1 0 657.5843845930771 672.6746789160458 670.664896109472 0 0 0
231 1 1 0 658.4927939840233 672.2760233350097 668.0530691840306 0 0 0
232 1 1 0 659.6970153157002 671.6787095698116 667.5802360175285 0 0 0
233 1 1 0 657.1103418392378 671.7049185941391 669.828547346727 0 0 0
234 1 1 0 657.4196005367879 671.4492329280512 668.5039941086465 0 0 0
235 1 1 0 662.9657512353971 676.7345718714113 651.3597100506074 0 0 0
236 1 1 0 669.5976835562625 672.8518800066978 675.7731777814029 0 0 0
237 1 1 0 675.237402109029 651.1632623358975 675.9447912623962 0 0 0
238 1 1 0 673.9547609770085 650.6867334279838 676.2912935466139 0 0 0
239 1 1 0 676.2401788052578 653.987180840458 673.9357703736804 0 0 0
240 1 1 0 674.2650405379287 653.0024629247522 674.6944452662946 0 0 0
241 1 1 0 672.9788469491582 652.3885666100567 674.8403974425327 0 0 0
242 1 1 0 672.7778366221714 651.3759175911239 675.767281877372 0 0 0
243 1 1 0 675.3820708786981 652.3992920208453 675.337150831004 0 0 0
244 1 1 0 676.5927552648103 652.9006292828507 674.7878445432668 0 0 0
245 1 1 0 670.2497233357454 651.5369706372986 676.0184270568527 0 0 0
246 1 1 0 671.4981969031182 651.0838822269952 676.4365648456151 0 0 0
1 1 1 0 656.6172814927548 653.4113033558227 676.8115682925356 0 0 0
27 1 1 0 661.8720639433058 665.625320561046 651.3893614604359 0 0 0
249 1 1 0 665.5159904899106 664.4386330012428 651.9190570862995 0 0 0
1162 1 1 0 664.3048027087141 652.739923318919 681.4247564439243 0 0 0
525 1 1 0 652.8676343455082 664.1475658922345 652.2606068617899 0 0 0
319 1 1 0 656.0831196124473 673.187996812779 681.295144158083 0 0 0
1008 1 1 0 651.1784049688713 679.8792683780739 681.573158329733 0 0 0
1754 1 1 0 661.9152174488744 678.3342652619075 654.1784482986163 0 0 0
255 1 1 0 668.5326047856614 667.8826168598686 652.6928740175783 0 0 0
906 1 1 0 666.9024478880581 657.4604021633561 650.4397872030095 0 0 1
257 1 1 0 652.237455774736 674.5555006365903 680.2993988544525 0 0 0
1179 1 1 0 667.4184718617662 666.2278479333329 649.6342062754794 0 0 1
259 1 1 0 668.2984131118907 669.0862637665057 653.3116651074968 0 0 0
547 1 1 0 677.8597687674244 671.0392265790671 675.3982073164657 0 0 0
2590 1 1 0 650.0520227045306 650.4965022114935 654.6982504967602 1 0 0
262 1 1 0 662.1414257090527 665.9870970707772 654.0819120562878 0 0 0
384 1 1 0 651.7633404283409 680.8689067550009 676.5487013346464 0 0 0
1646 1 1 0 679.3980816193344 651.318893217829 659.357838841172 0 1 0
265 1 1 0 653.2600334403393 673.6523386844376 680.6519791827988 0 0 0
1691 1 1 0 677.4017242324574 651.3392161720636 660.7346290479428 0 1 0
267 1 1 0 665.5563001828624 672.703338981849 669.5876620829131 0 0 0
268 1 1 0 659.0013849366862 674.3000014911025 666.8061600753872 0 0 0
269 1 1 0 660.241213255314 673.7091741813741 666.3386146548435 0 0 0
270 1 1 0 665.09752194458 672.9133153063426 668.3042062246233 0 0 0
271 1 1 0 663.8340568412176 673.1964030671444 667.9152167026102 0 0 0
272 1 1 0 659.9623723878428 672.9222896084192 663.8747796198728 0 0 0
273 1 1 0 660.6013124003517 673.616373505662 664.9235145328263 0 0 0
274 1 1 0 659.1930238210393 673.4060535756354 674.0493883770856 0 0 0
275 1 1 0 660.1122369400364 673.2571422927867 673.0034777127138 0 0 0
276 1 1 0 659.8009578627034 673.4172467057373 671.6433675906289 0 0 0
277 1 1 0 661.5001804658643 673.0756580116217 673.4513702668792 0 0 0
278 1 1 0 661.0290509788485 673.6234059899542 670.8175014480813 0 0 0
279 1 1 0 660.6489521182096 673.8864115612856 669.4831080087067 0 0 0
280 1 1 0 662.3022311548871 673.4244328299251 671.1629564582296 0 0 0
281 1 1 0 661.3955412033023 673.3228793394115 668.4768606035638 0 0 0
282 1 1 0 660.7257973213228 672.7030968751392 667.3443641371633 0 0 0
283 1 1 0 662.7911362339325 673.1729677205738 668.8130321697968 0 0 0
284 1 1 0 662.5299602141771 673.2036214989454 672.5336091215446 0 0 0
285 1 1 0 663.2488996033688 673.1797131555455 670.1702543127096 0 0 0
286 1 1 0 664.5640924207764 672.9049561360064 670.539506928083 0 0 0
1053 1 1 0 652.638630332979 667.4513913575036 651.1147148179695 0 0 1
94 1 1 0 654.0478932187202 653.1166495157862 676.1154920459287 0 0 0
415 1 1 0 653.8227200800987 649.7872505527731 665.6510055701702 0 0 0
549 1 1 0 678.5550630971195 666.3924816579976 674.430626320969 0 0 0
1009 1 1 0 652.3440165647546 680.5644275601794 682.0967273854234 0 0 0
258 1 1 0 651.4504223465316 668.4547507712066 650.9025469133854 0 0 0
986 1 1 0 663.4873028093765 660.2418690088075 649.9837711758596 0 0 1
160 1 1 0 651.0696726528665 649.5932530388086 658.4964657596867 0 0 0
2961 1 1 0 679.6646782694763 666.4651846504453 675.3776175314756 0 0 0
2 1 1 0 655.3380500914104 655.8848504369238 674.8702776909199 0 0 0
792 1 1 0 666.2621993363782 660.1118896216982 650.61404286729 0 0 1
226 1 1 0 654.1817062578509 655.0240253206174 674.7341319568804 0 0 0
299 1 1 0 667.8780916653623 672.5942246561787 674.1181198136087 0 0 0
297 1 1 0 651.705766655957 650.398970670725 675.5471472260966 0 0 0
301 1 1 0 674.8185618880068 670.3951314861783 674.0839417730048 0 0 0
302 1 1 0 669.2014643441514 651.5672596336066 677.0155362369146 0 0 0
1203 1 1 0 668.7152792227415 650.2507542253602 662.6772337134472 0 1 0
1339 1 1 0 671.5905578250805 649.8874115509265 666.962520545065 0 1 0
305 1 1 0 671.442863837131 650.1465698780837 677.4821093860902 0 0 0
306 1 1 0 669.0876774477028 650.6576686543533 678.1101431233244 0 0 0
225 1 1 0 653.9116481841254 654.2666024348614 673.5388038314687 0 0 0
308 1 1 0 670.2051203646929 649.803925205049 678.1771839404885 0 0 0
309 1 1 0 668.1432438960395 650.628079574704 679.1640756887548 0 0 0
392 1 1 0 668.378582480704 675.1141475175357 679.8342184496742 0 0 0
311 1 1 0 655.2131961038081 651.3850836343446 667.3924122781668 0 0 0
312 1 1 0 667.8021246734312 671.9137410740834 669.0808005372546 0 0 0
313 1 1 0 668.2954980582367 672.9380972318288 675.3890742878503 0 0 0
314 1 1 0 664.6907519923944 667.6657234613252 653.627354364595 0 0 0
315 1 1 0 670.8295145275326 671.4463539217207 671.3019166285179 0 0 0
316 1 1 0 661.9921066116495 677.8399359279866 651.5290160939136 0 0 0
317 1 1 0 656.8669397264656 673.8501826677752 662.6105714074603 0 0 0
47 1 1 0 681.256001747742 666.6869776662065 655.2061968476706 0 0 0
138 1 1 0 680.7910179137325 654.6479673501465 659.2416778938872 0 0 0
1145 1 1 0 666.1139055335709 650.4042046770693 681.0985124514922 0 0 0
321 1 1 0 673.1685598572864 671.0880816438395 670.8089717247747 0 0 0
322 1 1 0 666.682539540984 667.5409051415 655.6990117962588 0 0 0
323 1 1 0 667.5472540445821 669.4828851904157 656.9707456840197 0 0 0
324 1 1 0 666.9113497334417 668.2400862570557 656.9669543558393 0 0 0
2782 1 1 0 681.4301766980982 670.749793221132 676.8996372670902 0 0 0
481 1 1 0 663.996428705903 659.5920020392532 651.2431030676734 0 0 0
1196 1 1 0 669.7492258639885 651.7992909104335 664.2286887681582 0 1 0
328 1 1 0 672.2310983854495 666.2743459762232 655.0830037274775 0 0 0
329 1 1 0 670.7877937600808 666.8517713259805 656.8168061203955 0 0 0
330 1 1 0 670.1622332615555 667.2191449995684 654.2923896934359 0 0 0
1315 1 1 0 673.8559847897975 649.8604796718648 663.9736366199486 0 1 0
332 1 1 0 650.8476774919542 678.8658324899752 678.1452805767244 0 0 0
248 1 1 0 654.7885128134071 649.6506573163081 669.0147090543608 0 0 0
334 1 1 0 663.2946187793434 676.1879117097162 652.6592566243218 0 0 0
335 1 1 0 677.4394154922813 671.5175261022665 677.8239477484503 0 0 0
336 1 1 0 665.0231961928059 665.8501103178604 652.1676583192983 0 0 0
326 1 1 0 653.5147141395206 654.4301160236712 675.8834617091271 0 0 0
338 1 1 0 659.0655965254182 673.8721783079324 658.2233781768301 0 0 0
292 1 1 0 650.1780082194115 650.2731058863542 677.4606054536407 0 0 0
340 1 1 0 663.6479637788601 660.8207691597516 651.9287493108211 0 0 0
1029 1 1 0 669.0612117918965 654.7863478819033 651.6932507520711 0 0 1
908 1 1 0 667.6890720539323 656.3259471805201 650.423682303697 0 0 1
1195 1 1 0 670.5854347248501 650.659065112354 666.3290896332046 0 1 0
344 1 1 0 665.7990455799522 668.8278123162152 655.3656630389536 0 0 0
345 1 1 0 662.3018877102767 675.2922603190648 654.7262131132024 0 0 0
2960 1 1 0 679.710062011884 667.618848974569 676.2254944837916 0 0 0
347 1 1 0 662.0554519999896 662.5884567950238 652.5388169510879 0 0 0
348 1 1 0 661.8172181778775 675.6851583255564 657.4962199742893 0 0 0
349 1 1 0 666.9718672378926 669.5083457724296 653.4303358626101 0 0 0
1715 1 1 0 681.519019551893 651.1947101706672 658.0889309752572 0 1 0
3005 1 1 0 650.0335112031645 650.0050669057358 657.4933091997003 1 0 0
399 1 1 0 667.9456811826957 667.6754753337801 651.4596936601034 0 0 0
353 1 1 0 665.1749048862991 664.3775967724075 654.3926946720699 0 0 0
354 1 1 0 668.7246254813391 665.4755233037986 652.9843937905022 0 0 0
355 1 1 0 672.7920187434479 671.6125476924402 674.4859119730531 0 0 0
356 1 1 0 658.1799680609375 675.0946176694869 665.9771643226421 0 0 0
372 1 1 0 678.1090461115558 671.2634200036399 679.0871886876744 0 0 0
223 1 1 0 654.1090400499579 652.909911219173 673.1351814407903 0 0 0
359 1 1 0 665.3346026753032 666.4240233331828 653.3951547274594 0 0 0
360 1 1 0 658.5048484107866 673.590395607757 659.4349134561949 0 0 0
361 1 1 0 677.6862897347428 672.9154731788603 677.4666261623405 0 0 0
2823 1 1 0 680.2008685334091 667.0481269610257 671.2232921636504 0 0 0
367 1 1 0 652.9174858815448 674.8282273520717 666.7009266318937 0 0 0
298 1 1 0 650.6376722478958 649.7431607170793 676.2581415746274 0 0 0
221 1 1 0 655.7114571895063 656.6329651702953 673.708466098269 0 0 0
366 1 1 0 678.3594524365932 669.4194511730639 677.1312064835073 0 0 0
1282 1 1 0 666.7594801583392 650.6650687644695 666.3932075615854 0 1 0
368 1 1 0 649.9438393037501 678.0134251112843 680.3411694159124 0 0 0
290 1 1 0 653.5072570457804 651.9121708598248 673.9795647401832 0 0 0
370 1 1 0 652.1445912364375 675.3178633805296 679.1374223499829 0 0 0
555 1 1 0 675.4992945186948 675.7297595809994 682.2430930294834 0 0 0
377 1 1 0 678.131995526099 672.4098877372928 680.006233945911 0 0 0
373 1 1 0 662.7839342931154 676.4250188841517 655.4670031348835 0 0 0
374 1 1 0 661.4378022931215 677.8516536604866 652.8482170925256 0 0 0
375 1 1 0 659.6842893986679 677.5921093922573 654.8034097042787 0 0 0
2832 1 1 0 680.2733428827311 673.0476172644411 676.902146981916 0 0 0
3010 1 1 0 679.5890959255905 664.1693273460795 673.9164425754825 0 0 0
378 1 1 0 673.5055642375069 670.9413723998844 672.198136589435 0 0 0
2547 1 1 0 678.8695247154469 666.7979981882236 671.7745464267412 0 0 0
2580 1 1 0 679.5720425670872 671.3496086349115 673.2592016358751 0 0 0
381 1 1 0 663.9572670270908 664.4115540274846 655.2054561370974 0 0 0
4116 1 1 0 651.0097335909472 649.6673585529554 651.1367209502379 1 1 0
1762 1 1 0 663.1342008834107 677.5330639922323 654.624818090518 0 0 0
1615 1 1 0 678.1128138360403 649.3434403441076 659.6897886282519 0 1 0
1192 1 1 0 666.6185651118705 650.3806843061363 664.01199780417 0 1 0
386 1 1 0 658.0171927257021 673.1293829423009 660.6514135177188 0 0 0
2601 1 1 0 680.4086236206265 668.2324280931614 670.4359155614836 0 0 0
388 1 1 0 671.1875209860843 671.6170676685471 672.6862148580651 0 0 0
2543 1 1 0 651.76435806358 675.4148271782888 667.0410880001311 1 0 0
390 1 1 0 650.2309420189385 675.6453605492586 680.9896381781732 0 0 0
44 1 1 0 680.6459646176155 653.3940173773282 658.7549874611399 0 0 0
327 1 1 0 652.2969554199132 654.6564237453457 676.5078256007133 0 0 0
288 1 1 0 652.9258619802432 650.7486661773798 673.4841937071643 0 0 0
1175 1 1 0 665.9835467516806 657.9254303893995 651.4429354509788 0 0 1
806 1 1 0 657.2593691182295 664.5274880512943 649.9472407722494 0 0 1
396 1 1 0 660.9603487100941 676.4454235679407 653.1738555210139 0 0 0
300 1 1 0 667.9087031629416 666.3963122127251 650.9841686393308 0 0 0
1202 1 1 0 667.4382461560147 651.5811583689707 664.2048929126629 0 1 0
178 1 1 0 664.3424976904334 667.9406552680742 651.2561996922485 0 0 0
400 1 1 0 670.5568305313723 672.4195764301 674.8775715640837 0 0 0
401 1 1 0 673.5471411141428 672.5375023238857 677.0065374309668 0 0 0
402 1 1 0 672.2639740634256 672.761544415361 676.5351988209732 0 0 0
403 1 1 0 668.8439834392999 672.2422630928261 673.1519051657182 0 0 0
404 1 1 0 667.1529959404908 672.3460476010093 671.4172667669111 0 0 0
405 1 1 0 674.0446650093785 671.1990652794021 674.9351283039658 0 0 0
406 1 1 0 670.2007989935825 672.0561143990094 673.5903113954262 0 0 0
407 1 1 0 668.5067374070586 672.1189236555887 671.8159951374917 0 0 0
408 1 1 0 671.8826942630039 672.2660570590524 675.3006468150079 0 0 0
409 1 1 0 666.1319838013076 672.6545880255615 672.3234016343603 0 0 0
1198 1 1 0 669.4274013618674 651.159517298487 666.9823926959301 0 1 0
411 1 1 0 664.8135391715279 672.8485103404065 671.9481684735465 0 0 0
412 1 1 0 669.5460101122264 671.7135274377216 670.8764965097228 0 0 0
498 1 1 0 679.2503644218862 672.6662342833788 680.8294690766209 0 0 0
152 1 1 0 674.7656373213592 675.0767722911467 680.1310998277287 0 0 0
421 1 1 0 661.4539114996927 679.7247580585368 649.7385182116325 0 0 0
416 1 1 0 663.0702323369967 666.5668351184327 655.0023707205635 0 0 0
2596 1 1 0 681.0752251011362 669.946175938583 671.8892449250279 0 0 0
418 1 1 0 674.7887229510218 670.5445080406122 672.6373372392026 0 0 0
419 1 1 0 659.8979933149227 676.359727886962 654.1470667974946 0 0 0
420 1 1 0 666.8215109797492 672.3285813618977 669.9967213740988 0 0 0
1561 1 1 0 676.3776848409743 649.8487347953443 662.4425166085854 0 1 0
357 1 1 0 675.7688640582221 675.0234765412996 681.1117984193494 0 0 0
423 1 1 0 669.0798575970482 671.5899127644512 669.507733680583 0 0 0
1780 1 1 0 663.9759323134313 677.080266908272 653.5639680709701 0 0 0
425 1 1 0 658.2435302656629 673.6106053457792 680.2791499763769 0 0 0
426 1 1 0 657.9418013011559 673.7868419751842 678.922603198197 0 0 0
427 1 1 0 659.6345838232417 673.7147895791048 680.5409214719939 0 0 0