LAMMPS data file via write_data, version 2 Aug 2023, timestep = 50000, units = metal

28292 atoms
1 atom types

642.53275967947 725.901240320515 xlo xhi
643.0138739952255 726.1291260047975 ylo yhi
643.0065772827421 726.1364227172809 zlo zhi

Masses

1 12.0107

Atoms # full

1 1 1 0 647.6330011844001 655.4558671730239 644.7573517352606 0 0 0
2 1 1 0 643.5354849722014 663.0437560466256 651.6688087317616 0 0 0
3 1 1 0 647.2997323546657 647.4076014732121 662.7849883924199 0 0 0
4 1 1 0 649.8527940911321 647.7948866982728 643.5446997579209 0 0 0
5 1 1 0 648.5680741373019 648.3983544414318 643.5379972866677 0 0 0
7 1 1 0 644.4328687480962 658.36478477295 647.2738222871102 0 0 0
8 1 1 0 647.0255095397523 647.234846016081 661.4131325216304 0 0 0
9 1 1 0 645.6377225884183 657.5783310216881 647.0830191127477 0 0 0
10 1 1 0 645.8340209626224 656.6516034939667 648.1585543910143 0 0 0
11 1 1 0 645.6601165830048 655.2329612974752 647.8878538652928 0 0 0
12 1 1 0 653.7078146593417 644.911125999077 644.4468588627477 0 0 0
13 1 1 0 644.3697526604491 650.6190967529044 644.2993489577616 0 0 0
14 1 1 0 649.9797118795445 646.6359741196466 644.3054725143849 0 0 0
15 1 1 0 647.6513227628462 648.0616723580123 644.5434461620141 0 0 0
16 1 1 0 646.4628475439764 648.8197410925952 644.713561565818 0 0 0
17 1 1 0 650.3386329937421 644.2532770271567 645.8138857003996 0 0 0
18 1 1 0 648.9614062534278 646.0540786008519 645.0421155176689 0 0 0
19 1 1 0 649.0681333093706 644.9058327610458 645.8320163374419 0 0 0
20 1 1 0 647.8750111309713 646.9263874414736 645.295233206231 0 0 0
21 1 1 0 647.1887340441963 646.8300258320384 646.4567043915648 0 0 0
22 1 1 0 645.9748189605882 648.8364160563655 646.0470029686114 0 0 0
23 1 1 0 646.4127276864485 647.8673808896908 646.9300236978495 0 0 0
24 1 1 0 648.300112565546 644.6891140309918 646.9747408680324 0 0 0
25 1 1 0 647.4142082605068 645.7002623014517 647.244221699193 0 0 0
26 1 1 0 646.7636685780075 645.6848096895229 648.4941121175178 0 0 0
27 1 1 0 646.3092452611802 648.02849555752 648.2757201359782 0 0 0
28 1 1 0 646.4488007211922 646.8854208603827 649.1015430569003 0 0 0
29 1 1 0 659.0289030752357 644.7738741639325 645.0299067933975 0 0 0
30 1 1 0 657.5160244463422 656.0189886212294 644.6196280382476 0 0 0
31 1 1 0 660.186476456818 657.6238877994814 646.8846297634701 0 0 0
32 1 1 0 647.7365285780473 643.7152128870738 653.5770513148971 0 0 0
33 1 1 0 645.7351312292369 646.83956556033 650.3490753799111 0 0 0
34 1 1 0 659.7873864267257 644.726530241139 650.4295675506394 0 0 0
35 1 1 0 651.6866703066556 644.4837541191026 661.241841614197 0 0 0
36 1 1 0 643.843220508877 657.2742049490971 645.2399658585085 0 0 0
37 1 1 0 656.6011830815116 644.4902246958376 646.6570811092857 0 0 0
38 1 1 0 662.3986017841512 661.6453983180385 644.9478981182933 0 0 0
40 1 1 0 647.5445414256208 645.4436953733876 659.5210092441126 0 0 0
41 1 1 0 657.2118789674297 644.6308181266912 650.652483203328 0 0 0
43 1 1 0 653.4097412203311 645.7046779299664 643.3827570142806 0 0 0
44 1 1 0 652.2384839138236 646.3898918792008 643.4406822336214 0 0 0
45 1 1 0 651.1531613467703 645.8789149117491 644.1808250845397 0 0 0
46 1 1 0 651.356207350348 644.8022835264578 645.0529343287748 0 0 0
47 1 1 0 643.3796488410022 657.7495311868906 646.5154314312372 0 0 0
48 1 1 0 644.3440131781095 659.2476614523317 648.4569570420622 0 0 0
49 1 1 0 643.6501344973598 660.4804555467848 648.9985207809448 0 0 0
50 1 1 0 646.3660120094975 644.0179889479031 653.8856435022177 0 0 0
52 1 1 0 660.1671764947324 645.6094372668346 647.0061267340594 0 0 0
53 1 1 0 660.2944113750611 645.015634054652 651.6737126683441 0 0 0
54 1 1 0 645.6389838968081 649.2231130710329 661.7448387705778 0 0 0
55 1 1 0 659.1454772896848 662.799882598922 646.2363962733779 0 0 0
56 1 1 0 659.8079902145968 661.6241531955245 645.8099385070929 0 0 0
57 1 1 0 660.1557601784411 660.7088993389937 646.818086970933 0 0 0
58 1 1 0 661.511174862042 660.6017960417473 647.1044270728868 0 0 0
59 1 1 0 658.5543884856197 662.7287893203262 647.49835651993 0 0 0
60 1 1 0 658.4294412093342 661.5588433325979 648.2343792297613 0 0 0
61 1 1 0 657.7880009521298 661.3682585992595 649.466682674886 0 0 0
62 1 1 0 659.0219923072383 660.3992796648907 647.6791111299443 0 0 0
63 1 1 0 658.0859168423851 659.2826250384919 647.8599710675219 0 0 0
64 1 1 0 657.4782322396352 660.114603503716 650.0323575632796 0 0 0
65 1 1 0 657.8413115921771 659.0277798253126 649.2700743825345 0 0 0
66 1 1 0 657.6467303121615 662.516171845708 650.220179350366 0 0 0
67 1 1 0 656.9727458279317 662.479517377535 651.3783391500132 0 0 0
68 1 1 0 656.1429242295508 661.3857804007093 651.6886715071339 0 0 0
69 1 1 0 654.4540629511648 663.0014612444455 652.0393521077423 0 0 0
70 1 1 0 654.7870107404323 661.7195358581199 651.7608725879045 0 0 0
71 1 1 0 653.1052229293932 663.4160544889515 652.6961465813446 0 0 0
72 1 1 0 652.0616379305568 662.3750959381355 652.5081501826671 0 0 0
73 1 1 0 656.8605301698987 659.9261704664327 651.6024350814448 0 0 0
74 1 1 0 656.1267499815071 659.6926307461387 653.1134482184119 0 0 0
75 1 1 0 653.8670034475653 660.7506360663539 652.4411294106968 0 0 0
76 1 1 0 655.0287279818224 660.5284231327689 653.4093018528797 0 0 0
77 1 1 0 652.4423433776074 660.9705479549322 652.451876512344 0 0 0
78 1 1 0 651.1318055606589 660.461658821825 652.6421286421663 0 0 0
79 1 1 0 647.8146347673265 646.2361724912175 660.6929430753377 0 0 0
80 1 1 0 662.2926078137178 662.9511792390134 645.4033255125785 0 0 0
81 1 1 0 643.5201129997106 643.4560251275118 657.7930126390158 0 0 0
82 1 1 0 645.0764984464344 645.7237876447599 658.1565237559838 0 0 0
83 1 1 0 643.762404473398 645.8687077420798 651.6167133553233 0 0 0
84 1 1 0 645.0168772861612 658.9767849533441 650.7870840875257 0 0 0
85 1 1 0 656.8194624821807 644.431362348246 647.9907374338289 0 0 0
86 1 1 0 643.8290795671032 648.0638948233047 654.708685960316 0 0 0
87 1 1 0 645.7421470801426 646.009996057073 654.9558234483309 0 0 0
88 1 1 0 645.0086008441173 649.7428059731093 646.5352975428736 0 0 0
89 1 1 0 646.0739109700762 648.1786183174356 660.9688424514832 0 0 0
90 1 1 0 644.2175999575392 661.0530106264584 650.239028349887 0 0 0
91 1 1 0 646.237950095674 644.7313331640235 655.0989490408621 0 0 0
92 1 1 0 645.9774338343125 646.3619567203621 657.2576625431063 0 0 0
93 1 1 0 645.7861577585551 649.2084774446795 648.8141319306035 0 0 0
95 1 1 0 660.1819363286078 644.7465883124758 645.8096092579221 0 0 0
96 1 1 0 647.3117537846057 644.4890207457486 656.2062350597663 0 0 0
97 1 1 0 645.2241168518128 644.1343903521057 652.9590024135861 0 0 0
98 1 1 0 643.5501759489983 657.0125663601805 651.0636336533505 0 0 0
99 1 1 0 645.7755723914185 653.8016561834493 645.9073096812923 0 0 0
100 1 1 0 643.4841535835644 660.4654607488139 653.4135886061365 0 0 0
101 1 1 0 661.2131133592161 643.7305387502493 645.4164987431303 0 0 0
102 1 1 0 657.7009857690841 644.2097584688338 645.5810380120257 0 0 0
103 1 1 0 645.0105304687372 650.0856364905604 647.8642884856795 0 0 0
104 1 1 0 646.5269926879081 653.3338738227018 644.8568301827288 0 0 0
105 1 1 0 659.5943274695611 645.1163666907472 648.182120662622 0 0 0
106 1 1 0 643.0883747929553 643.5834535904145 647.4297985038111 0 0 0
109 1 1 0 657.9383123262708 658.306946384042 646.8709620784845 0 0 0
110 1 1 0 644.9378273894196 643.3285735718968 658.027102381718 0 0 0
111 1 1 0 650.2753121812325 645.0017578972302 663.2277186270856 0 0 0
112 1 1 0 643.8575507318964 658.3818482601764 651.2506864389444 0 0 0
113 1 1 0 657.0480069762899 643.9221494971372 644.2370563287698 0 0 0
114 1 1 0 660.2001225631448 645.4693169515467 649.3544189851215 0 0 0
116 1 1 0 657.2321329668516 647.0329813618802 655.7241834357862 0 0 0
117 1 1 0 645.1115723165927 660.3704713050347 651.0523573843416 0 0 0
118 1 1 0 658.5088005334484 644.0416832922479 650.0292128106249 0 0 0
119 1 1 0 643.1384101092717 645.8748776562925 648.1908010424482 0 0 0
120 1 1 0 648.3951433217602 643.5576235144205 647.7962001513991 0 0 0
121 1 1 0 661.6906479932142 643.3491932041584 643.9473529383574 0 0 0
122 1 1 0 646.9028966464886 655.9182882592875 645.8580853806178 0 0 0
123 1 1 0 650.3057430864262 643.8457297282251 652.6045995246682 0 0 0
124 1 1 0 644.1251208936023 647.4069656677499 655.9693029959953 0 0 0
125 1 1 0 662.0947554453828 655.4999152279948 644.7435494395841 0 0 0
126 1 1 0 652.6126822659274 643.8458445821979 653.3886029954755 0 0 0
127 1 1 0 658.592158856992 647.4426894867862 644.6449456966674 0 0 0
128 1 1 0 652.6690046864817 644.4559353830477 645.2585684837262 0 0 0
129 1 1 0 645.2040851601303 658.5681437370375 649.4543237589623 0 0 0
130 1 1 0 651.0188542292349 645.055714120499 654.6635338226096 0 0 0
132 1 1 0 645.0069819507135 644.3084513939962 648.6176183724319 0 0 0
133 1 1 0 646.3556188002904 644.3732417547219 648.8216373995086 0 0 0
134 1 1 0 647.6834765875194 654.0223204145018 644.5946601127312 0 0 0
135 1 1 0 659.3776932393679 646.9241555278757 654.5679655322307 0 0 0
136 1 1 0 659.4412284760366 648.3025450995485 654.5583009671724 0 0 0
137 1 1 0 659.5326520550594 651.0070997588134 654.6571029298966 0 0 0
138 1 1 0 659.6408060252652 652.3661870332593 654.9933637158235 0 0 0
139 1 1 0 660.4989695657856 646.1894781486817 654.2320405678032 0 0 0
140 1 1 0 661.4391339505606 646.7297123779737 653.215040942598 0 0 0
141 1 1 0 660.5982363462024 648.9475962350454 654.1129853706734 0 0 0
142 1 1 0 661.438414376617 648.2243699304918 653.3038721718947 0 0 0
143 1 1 0 660.655290782132 650.356144355339 654.1753550730541 0 0 0
144 1 1 0 661.7578560271701 650.9258161197924 653.5557293448309 0 0 0
145 1 1 0 660.9166120680002 652.9646879018634 654.8176675397493 0 0 0
146 1 1 0 662.0421553839441 652.4226448178165 653.8177272654984 0 0 0
147 1 1 0 660.8166418005061 654.3348653984586 655.1337520036775 0 0 0
148 1 1 0 660.1299147337448 655.1495608113762 653.8579940609314 0 0 0
149 1 1 0 659.6540616151487 656.6627487096143 653.2276027314513 0 0 0
150 1 1 0 660.9630592872535 646.2410118305157 651.8223039240537 0 0 0
151 1 1 0 661.3398107140781 647.023393873843 650.7782996918382 0 0 0
152 1 1 0 661.9701154568181 648.9548142544787 652.2245756981864 0 0 0
153 1 1 0 661.913062915107 648.3401131133028 650.9282085622496 0 0 0
154 1 1 0 662.287277236176 650.3311297693482 652.3711432288134 0 0 0
155 1 1 0 662.4453559107671 651.1477864673926 651.2491317784136 0 0 0
156 1 1 0 661.5442985481251 653.1359537732734 652.5713539014985 0 0 0
157 1 1 0 662.0337369665482 652.4768438937017 651.3299433409626 0 0 0
158 1 1 0 660.9760035851132 654.3844350184288 652.583883106239 0 0 0
159 1 1 0 661.0607226513168 655.0547422683328 651.3842292262391 0 0 0
160 1 1 0 659.6325399039285 656.9208228639948 651.8689976177631 0 0 0
161 1 1 0 660.5541603238751 656.2902422683209 651.0855165288414 0 0 0
162 1 1 0 658.7177979937356 657.9107867019483 651.3383377159997 0 0 0
163 1 1 0 658.7526789262536 658.1643946869925 649.9421759766242 0 0 0
164 1 1 0 660.8788198976001 646.6565031206563 649.525386875652 0 0 0
165 1 1 0 662.1738156105424 649.0417437419331 649.7979419619703 0 0 0
166 1 1 0 662.919134278079 650.4321376018189 649.8635296335575 0 0 0
167 1 1 0 662.0870159293172 653.1712855165679 650.1334310747465 0 0 0
168 1 1 0 661.9518942855784 654.5219073272928 650.3181311917255 0 0 0
169 1 1 0 660.9226250682876 656.924080601674 649.9337953456748 0 0 0
170 1 1 0 659.9772385183604 657.7666981186828 649.351719700421 0 0 0
171 1 1 0 661.0312238197733 647.4369899444862 648.3643114531797 0 0 0
172 1 1 0 661.763509627757 648.5940224180573 648.5532297308472 0 0 0
173 1 1 0 662.3165881943977 651.2475301914768 648.7378363555264 0 0 0
174 1 1 0 662.3636916194249 652.5704819930104 648.941687191917 0 0 0
175 1 1 0 662.5927491728878 655.333960627287 649.3776455289415 0 0 0
176 1 1 0 660.4771305002978 658.3417798186201 648.1211467865792 0 0 0
177 1 1 0 660.5803896475021 647.0026729660389 647.0615173528001 0 0 0
178 1 1 0 660.5920805460368 647.9365955895931 646.017839556621 0 0 0
179 1 1 0 662.4140213491031 649.2332219496175 647.3223980790459 0 0 0
180 1 1 0 662.0174894824835 648.6168809328295 645.850230186779 0 0 0
181 1 1 0 662.3177483355355 650.7382895180452 647.4504468713252 0 0 0
182 1 1 0 662.8719046193978 651.4737889963362 646.387406533727 0 0 0
183 1 1 0 662.8855881573601 653.3866530856205 647.9540808862282 0 0 0
184 1 1 0 661.8588857034215 658.6911299433817 648.3127763016195 0 0 0
185 1 1 0 658.7101971755707 655.3641388251795 654.8136097371018 0 0 0
186 1 1 0 658.6936097127057 657.3978690176583 653.87085570545 0 0 0
187 1 1 0 657.9335561743817 658.4665661757524 653.4359002383826 0 0 0
188 1 1 0 657.9587464823949 658.8175405361902 652.1080906892688 0 0 0
189 1 1 0 659.9109837477198 654.5704166720279 658.3247735188296 0 0 0
190 1 1 0 659.4057399809362 655.5343020449311 659.3024662662758 0 0 0
191 1 1 0 658.00553320392 655.597864332268 659.0681809076253 0 0 0
192 1 1 0 659.9974510267929 656.8778981275689 661.2767751522621 0 0 0
193 1 1 0 657.9302129218687 657.7080455858184 660.1742441842815 0 0 0
194 1 1 0 657.3538144345846 656.8967820933512 659.1738474062911 0 0 0
195 1 1 0 658.774577331288 657.5557675257419 661.2847550736144 0 0 0
196 1 1 0 658.6239186951881 658.258674090493 662.5105064409402 0 0 0
197 1 1 0 661.4835367890943 654.8816355928988 656.2344225500192 0 0 0
198 1 1 0 661.1260483158743 654.9105621196679 657.6548610558104 0 0 0
199 1 1 0 662.0260567261826 655.5893457969952 658.4885898507041 0 0 0
200 1 1 0 661.6983875807953 655.9057709203427 659.7992002028348 0 0 0
201 1 1 0 660.3451556304072 656.0839020454616 660.16163301468 0 0 0
202 1 1 0 660.9541661787167 656.8931276157757 662.3548566453416 0 0 0
203 1 1 0 662.670418431082 656.0083736275668 660.8073980632843 0 0 0
204 1 1 0 662.282679497068 656.493657736884 662.0565831710144 0 0 0
206 1 1 0 657.17546368751 648.4129353590386 655.7365141383937 0 0 0
207 1 1 0 658.3140150747362 648.9743962456832 654.9991899969451 0 0 0
208 1 1 0 658.3653215831428 650.3675057499291 655.0661357215373 0 0 0
209 1 1 0 656.4533459552821 649.5838257177185 656.1031044343632 0 0 0
210 1 1 0 657.3192705271264 650.7884997373993 655.9879070154898 0 0 0
211 1 1 0 657.4820224556504 651.9985518731179 656.5807106734538 0 0 0
212 1 1 0 658.779382139602 653.6953991894784 658.1580723672009 0 0 0
213 1 1 0 658.6656391808867 652.6904041290364 657.2969349381692 0 0 0
214 1 1 0 657.6789342858856 654.5998948735034 658.1309363625852 0 0 0
215 1 1 0 657.4025516056913 655.0913190659206 656.8034517495261 0 0 0
216 1 1 0 656.6151763053534 657.2651254559528 658.0286744093339 0 0 0
217 1 1 0 656.947621611293 656.4814779697075 656.8079705828934 0 0 0
218 1 1 0 655.8786345200182 658.4151583012142 657.8258765889685 0 0 0
219 1 1 0 655.9370084646442 659.0598342869403 656.5017068607312 0 0 0
220 1 1 0 658.4971598464055 653.0693618654102 655.742130873809 0 0 0
221 1 1 0 658.1299663295524 654.4856891864364 655.6710025603394 0 0 0
222 1 1 0 657.1746959855913 657.1915379668137 655.655206605291 0 0 0
223 1 1 0 658.153149502952 656.6140730762 654.8808689887198 0 0 0
224 1 1 0 656.5718909261196 658.4377696454086 655.4187016694905 0 0 0
225 1 1 0 656.8155669698244 658.9956379310192 654.1001355725898 0 0 0
226 1 1 0 643.4773794730465 659.6413442587302 655.638653599045 0 0 0
227 1 1 0 644.4456957929285 659.8325635226613 658.2968911199898 0 0 0
228 1 1 0 655.0490351276542 644.8147330492454 644.8184140137041 0 0 0
229 1 1 0 644.9330201040851 659.8780517846094 659.6423087304395 0 0 0
230 1 1 0 644.8915680568823 660.7020597534056 653.5238227672419 0 0 0
231 1 1 0 644.6888601776055 660.280514414914 655.899274189977 0 0 0
232 1 1 0 645.1674916676736 660.3117125149018 657.2031388762191 0 0 0
233 1 1 0 645.6939428784434 660.7308782276024 652.3743530852914 0 0 0
234 1 1 0 645.495568880087 660.6969629683617 654.8056563267367 0 0 0
235 1 1 0 647.115825798693 660.861660782145 652.6536094778127 0 0 0
236 1 1 0 647.7404458831994 660.9587468455245 653.9141230747322 0 0 0
237 1 1 0 650.2103312512305 661.3973162622174 653.271168741215 0 0 0
238 1 1 0 649.1224368862822 661.2299480220521 654.2074223311315 0 0 0
239 1 1 0 650.8472030381317 662.7750679403521 653.4750953515049 0 0 0
240 1 1 0 651.5613097050021 662.5991622067461 654.8594071619187 0 0 0
241 1 1 0 653.7014273702346 663.25315793999 654.0711991615044 0 0 0
242 1 1 0 652.9018541265591 662.7974694127653 655.079227114082 0 0 0
243 1 1 0 655.0474548728571 662.8977780368554 653.9900691317846 0 0 0
244 1 1 0 655.1776810674501 661.5673869510633 654.4245656749829 0 0 0
245 1 1 0 646.8792881405324 660.9352715875825 655.039832038663 0 0 0
246 1 1 0 647.3149387947223 661.1206582288017 656.374650900603 0 0 0
247 1 1 0 649.5533995483512 661.5524793811454 655.5282133603623 0 0 0
248 1 1 0 648.679577762988 661.4037593884005 656.6126127911153 0 0 0
249 1 1 0 646.4873421563835 660.7407514678084 657.4679768313149 0 0 0
250 1 1 0 647.0755880143196 660.7095509080395 658.7746476210732 0 0 0
251 1 1 0 649.2079486473586 661.2247629994479 657.9142415626249 0 0 0
252 1 1 0 648.4001716647399 660.9319871881528 659.0149904548933 0 0 0
253 1 1 0 646.3265593253194 660.1892848199965 659.8668790242616 0 0 0
254 1 1 0 650.8120472552276 661.9716067550311 655.8242573740914 0 0 0
255 1 1 0 651.3992225187394 661.7317312767832 657.0511309419152 0 0 0
256 1 1 0 653.5794110945255 662.0382663650129 656.0862206749729 0 0 0
257 1 1 0 652.7828290706515 661.70896230887 657.2137674727865 0 0 0
258 1 1 0 654.6377261951562 661.3175879566721 655.6967338370538 0 0 0
259 1 1 0 655.0585923850633 660.2390815677254 656.6030318211758 0 0 0
260 1 1 0 650.6006736685933 661.3592881580602 658.129167326862 0 0 0
261 1 1 0 651.1578267580393 660.6153034043501 659.1762951342422 0 0 0
262 1 1 0 653.3225005330089 660.8856976688791 658.145942117533 0 0 0
263 1 1 0 652.5522313733293 660.5020537046792 659.2075886179047 0 0 0
264 1 1 0 654.530719347202 660.2431447190401 657.9252678936075 0 0 0
265 1 1 0 661.0453022975926 656.352230685405 645.1158658200025 0 0 0
266 1 1 0 643.9408694482605 650.8407392625443 648.3921941659972 0 0 0
267 1 1 0 644.2905549522961 659.2388822552766 660.7426804243476 0 0 0
268 1 1 0 645.5780044168852 644.4263234553163 658.6448246739108 0 0 0
269 1 1 0 643.3144377789524 657.1436216250298 662.4032299984086 0 0 0
270 1 1 0 644.9653831463721 658.8610436606853 661.9316673869388 0 0 0
271 1 1 0 644.4150020576752 657.8832003551337 662.8702262408691 0 0 0
272 1 1 0 658.1679199400385 646.3752258612595 654.8856917916505 0 0 0
273 1 1 0 646.1872447211997 659.4951327554567 662.2331330476177 0 0 0
275 1 1 0 646.8756735134064 660.0438178781828 661.1900827360116 0 0 0
276 1 1 0 648.9932171104311 660.6358470594685 660.2599686590814 0 0 0
277 1 1 0 648.2444195720984 660.3324399587151 661.3494747846737 0 0 0
278 1 1 0 648.8850022164424 660.0923393902301 662.5991045086596 0 0 0
280 1 1 0 655.0021986991312 659.0906125227622 658.8050966238471 0 0 0
281 1 1 0 650.3573550655778 660.280308215162 660.2799386674404 0 0 0
282 1 1 0 651.0030230064551 659.8134110651888 661.4226274254452 0 0 0
283 1 1 0 653.0923440854915 659.6617417463284 660.2062997123185 0 0 0
284 1 1 0 652.4062389123416 659.5929464412196 661.4674199401599 0 0 0
285 1 1 0 654.399425477822 659.0753090719128 660.0933636826073 0 0 0
286 1 1 0 654.8973322530721 658.6753208816762 661.3348829846237 0 0 0
287 1 1 0 650.2950821090957 659.908664442903 662.6138900829291 0 0 0
288 1 1 0 653.0386886122548 659.3428040543719 662.608458789307 0 0 0
289 1 1 0 654.4212526218548 659.1628333906095 662.6199728671434 0 0 0
290 1 1 0 658.6408649766971 656.5821039724092 645.2299837144654 0 0 0
292 1 1 0 645.982691628233 649.4059985582022 663.1048517801091 0 0 0
294 1 1 0 645.322061886137 649.1404592770155 650.1273145306475 0 0 0
295 1 1 0 643.1516914452171 644.5542958201895 652.2849357169624 0 0 0
297 1 1 0 643.5277270674859 650.7203159404567 649.7050892821452 0 0 0
298 1 1 0 648.7443984737056 644.445614178625 654.3128643557371 0 0 0
299 1 1 0 645.6333663486683 648.0712984481056 651.0623889495446 0 0 0
300 1 1 0 644.7205823870215 648.1765968930342 652.2176869349923 0 0 0
301 1 1 0 643.2938525946654 646.9921344556775 657.0324788043278 0 0 0
302 1 1 0 650.0116610537957 644.5422192255404 653.7996746452824 0 0 0
304 1 1 0 658.2636732361782 644.9125761502855 653.0035229127004 0 0 0
305 1 1 0 655.5136864654651 644.1599724621939 657.1500222455228 0 0 0
306 1 1 0 644.0925124600907 650.3134377590451 645.6617944144316 0 0 0
307 1 1 0 643.5859043589534 655.4307349714069 649.1216317373836 0 0 0
308 1 1 0 649.3882841596535 645.3872843981069 657.9078235262403 0 0 0
309 1 1 0 650.0418838358567 644.298662738637 658.5140632385582 0 0 0
311 1 1 0 652.3659720427612 644.8974677452687 654.2642398782959 0 0 0
312 1 1 0 659.1287551745196 645.278010926612 643.7027785765766 0 0 0
313 1 1 0 653.4613236971477 645.1089386269183 655.1912953148272 0 0 0
314 1 1 0 658.6264663473962 646.603223745238 643.4974810053629 0 0 0
315 1 1 0 653.1530920324518 645.0029767063872 656.589582091387 0 0 0
316 1 1 0 643.7002886516667 645.9105849194748 657.854411485491 0 0 0
317 1 1 0 646.0700989002207 652.3033155767474 643.9919971806014 0 0 0
318 1 1 0 646.3664250093046 654.8339434005835 646.6932504245395 0 0 0
320 1 1 0 652.2705979023575 643.8944023998961 660.0737643632743 0 0 0
322 1 1 0 645.303594737244 646.44651709055 653.7093470848372 0 0 0
323 1 1 0 649.5897793572738 645.3257621741824 656.485536169886 0 0 0
324 1 1 0 654.0043222207527 644.1168443120517 657.2630613718065 0 0 0
325 1 1 0 648.6322637758063 644.8423542378391 655.6170436598994 0 0 0
326 1 1 0 654.7661313814899 644.7029681964779 654.8399018651901 0 0 0
327 1 1 0 644.4202892852024 653.5636413933519 646.0282838975431 0 0 0
328 1 1 0 643.7417528841507 654.070279902408 647.0839899160026 0 0 0
329 1 1 0 645.2522084252618 657.1099201071647 649.3650337145697 0 0 0
331 1 1 0 651.5624232404301 644.2195320181276 658.5578118392754 0 0 0
332 1 1 0 644.8439240893318 645.5086763928107 652.7591687854764 0 0 0
333 1 1 0 659.8340112672976 656.2395246368674 644.5214992886359 0 0 0
334 1 1 0 643.2331139062177 659.1391954851167 658.0433414762149 0 0 0
335 1 1 0 660.3732919687478 648.6790100280028 643.6918270902205 0 0 0
338 1 1 0 658.3274671154364 644.1997636348019 648.4428990098738 0 0 0
339 1 1 0 643.1022577208454 658.5992884183725 660.426818175803 0 0 0
340 1 1 0 647.8183492685334 643.3233754723567 658.2638394645502 0 0 0
341 1 1 0 644.2110590570129 645.4430656681421 649.0626140941297 0 0 0
342 1 1 0 644.5437178254858 646.0434951492568 650.3167541155776 0 0 0
343 1 1 0 657.1739963394293 645.5279073494578 657.6658211063321 0 0 0
344 1 1 0 649.26010499954 645.8067588152845 662.659559133919 0 0 0
345 1 1 0 662.8619050012925 644.9511579157698 654.2326917578471 0 0 0
346 1 1 0 661.404013172289 649.6122708526256 643.7207090319365 0 0 0
347 1 1 0 648.0880971511135 645.8174453032574 658.2362456238152 0 0 0
348 1 1 0 645.4197320417159 646.789067865302 656.0665383468117 0 0 0
350 1 1 0 662.7905057549954 646.1285485118559 653.5396552037138 0 0 0
351 1 1 0 659.8436880400976 648.116886921551 644.8564932066989 0 0 0
352 1 1 0 643.5899982226543 653.043470944605 644.7937728180251 0 0 0
354 1 1 0 658.9099410152103 657.4286590951788 646.3783434964321 0 0 0
355 1 1 0 661.2444601377317 657.0958845636756 646.2330828819971 0 0 0
356 1 1 0 643.9892994997047 649.5053018926814 650.1539031813548 0 0 0
357 1 1 0 649.1001527171004 646.0150462190265 661.3005508171543 0 0 0
358 1 1 0 650.8929275054824 645.2415842985661 656.0924246336011 0 0 0
359 1 1 0 651.8331981297963 645.0533810243305 657.0709517058956 0 0 0
360 1 1 0 662.6180891666128 663.2719279798097 646.7439352455191 0 0 0
361 1 1 0 658.3384975528725 643.5155968439558 656.9789743371504 0 0 0
362 1 1 0 662.7847831385 651.0134285811706 645.0734199102307 0 0 0
363 1 1 0 644.6745551461846 651.9875418030554 644.1296213989233 0 0 0
364 1 1 0 645.1960529865237 657.2673379209683 644.773279162136 0 0 0
365 1 1 0 646.1195525175377 657.0871377205501 645.8137642429441 0 0 0
366 1 1 0 643.2392650995735 648.4328197033531 651.6474562244904 0 0 0
367 1 1 0 646.9469835670483 644.1862333587953 659.0424670047385 0 0 0
368 1 1 0 659.6567574867988 644.371955612537 652.9053257371247 0 0 0
369 1 1 0 655.6133201406119 644.358707689061 659.5969191319125 0 0 0
370 1 1 0 644.7182761252634 647.7276811375175 653.5795979927383 0 0 0
371 1 1 0 660.5114486260725 644.7403649249825 654.184449676995 0 0 0
372 1 1 0 644.2043207191427 656.3298006679987 649.9986989608498 0 0 0
373 1 1 0 644.3506915917942 654.8024237622271 648.1048380446651 0 0 0
374 1 1 0 656.5540762061795 646.048574797431 656.4856569362714 0 0 0
375 1 1 0 656.0946515561562 644.8910920340013 658.3972689940124 0 0 0
377 1 1 0 661.7293131355989 644.2316749193636 654.6538797380504 0 0 0
379 1 1 0 655.8958627184712 644.7988711354432 655.7525962543835 0 0 0
380 1 1 0 651.3823272486273 644.2792528967277 662.6312582653625 0 0 0
381 1 1 0 662.0876106260231 649.8325743200238 644.8804323377263 0 0 0
382 1 1 0 657.8463854884166 645.1626180928293 654.2937596200028 0 0 0
384 1 1 0 647.1921471482123 645.7615481001372 657.2051316107288 0 0 0
386 1 1 0 651.578701825523 643.3986256596469 652.543153130944 0 0 0
387 1 1 0 656.0125874943724 644.7237307312367 643.8628126780574 0 0 0
388 1 1 0 655.2953332307032 644.5155430377187 646.1856528980828 0 0 0
389 1 1 0 657.2714844248094 644.6974526976089 652.0851245748091 0 0 0
392 1 1 0 662.1308001638331 656.64507301018 649.3674553696814 0 0 0
393 1 1 0 662.8817798344068 654.7585551525971 648.1099731212366 0 0 0
424 1 1 0 643.0761929029427 661.7229396106978 651.1012228475947 0 0 0
396 1 1 0 657.0589194910851 644.2222889356955 654.9824908083876 0 0 0
398 1 1 0 658.4064631440416 644.838346454281 657.4175329667463 0 0 0
399 1 1 0 655.9311285967912 644.1115759867936 650.2069386415471 0 0 0
400 1 1 0 655.7892702432327 644.0890857405353 648.8286999714429 0 0 0
402 1 1 0 652.9578412848255 643.7302644025199 646.4258286357016 0 0 0
403 1 1 0 649.2794897853568 643.1994303780328 651.7853850979619 0 0 0
404 1 1 0 654.268932895401 643.8669151210983 646.9390550034582 0 0 0
407 1 1 0 655.3850768123142 643.3360793153415 651.220312724403 0 0 0
408 1 1 0 654.779521086882 643.4308962979401 654.2260420163957 0 0 0
409 1 1 0 654.6255455781111 643.5051741317707 648.2696356792748 0 0 0
410 1 1 0 656.4135255544024 643.4113156848625 652.3219045925752 0 0 0
413 1 1 0 662.1925978146945 659.9596546169831 648.1695138132905 0 0 0
414 1 1 0 662.630388653748 660.6243513889767 645.9503552690916 0 0 0
415 1 1 0 662.8654468459755 655.5154832005803 646.9296420802406 0 0 0
416 1 1 0 662.5544833204654 657.4703391695509 648.2748884081055 0 0 0
417 1 1 0 662.395998152727 656.799727913223 647.0067213838437 0 0 0
425 1 1 0 662.5181942680192 661.3351296605556 643.6060372112113 0 0 0
435 1 1 0 662.1425421681549 655.0637165373239 643.4455658242039 0 0 0
446 1 1 0 643.0295206186347 655.2725126773511 643.806940208874 0 0 0
473 1 1 0 650.6357055052505 643.4231464942247 646.9530381384023 0 0 0
478 1 1 0 647.3829131247738 643.4224268748885 648.8602240637222 0 0 0
502 1 1 0 662.6924957331431 655.4850135172101 655.8217301187203 0 0 0
7673 1 1 0 649.6900881050921 643.1256536247499 648.0345110508616 0 1 0
296 1 1 0 643.0430346005202 651.0569011413331 646.1907629043817 0 0 0
108 1 1 0 662.5668988308139 645.8739390031262 643.2273487092792 0 0 0
383 1 1 0 642.9299118583915 651.1905510254674 647.5811714422955 0 0 0
390 1 1 0 642.9799575843692 659.525106701313 654.3278422463419 0 0 0
2788 1 1 0 647.93124299119 656.1640793524755 643.5830784976557 0 0 0
431 1 1 0 642.8446073513664 660.4166939731476 652.1776646268928 0 0 0
447 1 1 0 644.0753541108891 643.4172977892384 652.3491722274356 0 0 0
401 1 1 0 642.8936700447316 656.1452385979684 663.3197953039901 0 0 0
391 1 1 0 663.0460410589228 647.4886711516175 645.3901101343613 0 0 0
405 1 1 0 642.943280203744 657.3434149525749 661.0480435978878 0 0 0
303 1 1 0 644.5235523986582 644.3447369318773 643.7155170964387 0 0 0
378 1 1 0 648.6862485576416 653.4250388316713 643.8242939637657 0 0 0
337 1 1 0 642.9313125042291 644.7180325189839 657.9806609470418 0 0 0
6 1 1 0 646.034419901842 649.5656622121556 643.6461320876425 0 0 0
460 1 1 0 642.8836854739421 656.6874443174675 644.1826927619393 0 0 0
491 1 1 0 645.6490886196843 657.1484915341052 643.3738733082722 0 0 0
395 1 1 0 642.9175652502784 648.4482395981931 650.0725532403827 0 0 0
3519 1 1 0 647.1940765896976 651.6415269571245 643.3301868755676 0 0 0
51 1 1 0 662.943876960601 654.9336094332772 645.6670479733357 0 0 0
349 1 1 0 663.1144774448017 651.7834040494723 643.9301800200466 0 0 0
439 1 1 0 657.3796343588074 655.3405504182499 643.361416451316 0 0 0
336 1 1 0 647.2406375789893 643.3300344727716 643.7123110989792 0 0 0
107 1 1 0 648.2683423448107 646.5393977587604 663.3670305774383 0 0 0
449 1 1 0 661.909524039728 643.1771753295233 655.5115021887517 0 0 0
411 1 1 0 642.8563155577754 646.9997773838811 652.072547110518 0 0 0
115 1 1 0 642.8818276553751 658.900227449644 656.7223921183926 0 0 0
330 1 1 0 643.1561139154647 644.8073468314255 643.4960992879176 0 0 0
443 1 1 0 655.0621335701952 643.2152368822739 660.0125860230063 0 0 0
428 1 1 0 644.2927917167208 643.2688582742848 648.0568224317625 0 0 0
319 1 1 0 653.5113117489163 643.1473839668034 660.3739554747667 0 0 0
10683 1 1 0 651.9692264451962 643.2757431875905 647.2944819486019 0 1 0
488 1 1 0 662.9938954021793 660.0709244041237 643.170027512574 0 0 0
274 1 1 0 646.819255736054 659.2445634769847 663.4640421667918 0 0 0
385 1 1 0 642.7630449528575 659.11167951021 651.7837839719598 0 0 0
293 1 1 0 650.9787518236726 648.4238429912862 643.036255704537 0 0 0
397 1 1 0 643.8410412108495 648.2582007743731 643.2398382362018 0 0 0
3511 1 1 0 652.2523446914782 643.500295299342 663.5282396338083 0 0 0
5898 1 1 0 659.7966526534427 655.779036689652 643.2398734215737 0 0 1
457 1 1 0 642.583180310032 654.1802579077482 644.4303352965987 0 0 0
2366 1 1 0 642.5934651946422 648.4919332903552 643.7813930637841 0 0 0
511 1 1 0 663.0839116220404 655.0996953295898 654.5437758930011 0 0 0