LAMMPS data file via write_data, version 2 Aug 2023, timestep = 50000, units = metal

35556 atoms
1 atom types

634.0518481452455 738.6361508547916 xlo xhi
634.6003708422376 738.7966281577725 ylo yhi
634.5262215544549 738.8707774455552 zlo zhi

Masses

1 12.0107

Atoms # full

1 1 1 0 649.8884351454236 639.4301974606483 643.1498738365597 0 0 0
2 1 1 0 648.3848319644853 639.629160356007 641.2749870231745 0 0 0
3 1 1 0 648.7689010249475 638.4773656224119 643.0466365145764 0 0 0
4 1 1 0 646.5879578363788 637.6360948129269 644.5676498114335 0 0 0
5 1 1 0 647.988377228918 635.894994006274 643.5247016365812 0 0 0
6 1 1 0 646.7632275582317 636.5544865557926 643.6211991627207 0 0 0
7 1 1 0 661.7027991038908 651.4509635235718 638.3257768398948 0 0 0
8 1 1 0 652.5220373290019 661.9805442385704 636.6306717099943 0 0 0
1181 1 1 0 635.3418934015682 650.8642836275324 655.6115019561306 0 0 0
10 1 1 0 647.5406316007143 639.0476339978048 642.3884159377893 0 0 0
11 1 1 0 646.1371378657551 639.1129388236092 642.6404328782571 0 0 0
12 1 1 0 645.1404732090875 639.5265126344254 641.6793031797263 0 0 0
13 1 1 0 642.7967054962052 639.0593610517101 640.5766891612993 0 0 0
14 1 1 0 653.8875821322151 646.4951324001808 642.9874585136724 0 0 0
15 1 1 0 648.99061584689 662.741329982787 636.4912047788672 0 0 0
16 1 1 0 636.5464250517773 648.6419301886593 652.9987305091214 0 0 0
17 1 1 0 637.1745930048218 663.588003987833 679.5495173111498 0 0 0
18 1 1 0 653.479894276371 655.7033348518343 637.1543739299286 0 0 0
19 1 1 0 637.1142502115875 664.363991400098 681.8456116321571 0 0 0
20 1 1 0 684.4111642406638 635.7229397704574 649.3002292548108 0 0 0
21 1 1 0 657.3526015543613 686.0006268344371 671.8562042292965 0 0 0
22 1 1 0 656.4642708499334 658.6965773555539 685.6886708269824 0 0 0
23 1 1 0 643.3533666215438 667.0009338146847 642.041755562975 0 0 0
24 1 1 0 660.1665816625595 675.4424357375677 686.1785081808645 0 0 0
3288 1 1 0 686.0541494514046 685.3825858144271 671.3566030078377 0 0 0
26 1 1 0 645.6354401136477 638.578439450926 643.876670343798 0 0 0
27 1 1 0 644.1908387238249 637.9003174449651 643.862112225476 0 0 0
28 1 1 0 645.5709226631443 635.8790623492009 643.2291144563407 0 0 0
29 1 1 0 644.3547407571724 636.540129882882 643.1389594161017 0 0 0
4086 1 1 0 634.100677352691 670.5572796434936 660.7341961398851 0 0 0
31 1 1 0 674.843572981461 652.7079017445149 640.9362889343628 0 0 0
32 1 1 0 664.7592251665121 652.7255244434833 640.0001676925073 0 0 0
33 1 1 0 636.3716658254687 640.8680268216197 648.7872965760529 0 0 0
34 1 1 0 666.353454170328 674.3266071328803 637.9294726683855 0 0 0
580 1 1 0 645.0107391782915 634.8840031361141 676.628352803084 0 0 0
36 1 1 0 643.7597965908309 639.204184812025 641.6565519352554 0 0 0
37 1 1 0 641.6171086574185 637.5242562053468 642.2208498871594 0 0 0
38 1 1 0 643.2510235822576 635.7589536076633 642.7191867705033 0 0 0
39 1 1 0 642.0272186876293 636.2602101400097 642.3059264958451 0 0 0
40 1 1 0 657.4847723711868 678.9376770148492 635.4234734899838 0 0 0
41 1 1 0 658.8339455328978 652.8679299153123 636.5740044333199 0 0 0
42 1 1 0 640.2073525944056 663.9377783322097 659.9183596852389 0 0 0
18502 1 1 0 634.2975512774099 651.7371066862352 666.3336387587935 1 0 0
44 1 1 0 653.4483601685766 649.8384474941505 679.1632175734321 0 0 0
45 1 1 0 658.8772917368674 654.1695538546066 637.0209110314798 0 0 0
46 1 1 0 638.5609245583152 666.8495366044609 638.9045263329416 0 0 0
8545 1 1 0 672.7085264080553 671.8492143934889 634.8504940010682 0 0 1
48 1 1 0 685.0636344511398 652.8206122421567 663.3457334430461 0 0 0
49 1 1 0 641.1155932738932 635.3886855529835 641.7619891796505 0 0 0
50 1 1 0 682.5219509083859 658.4996452314859 636.1174388495327 0 0 0
51 1 1 0 637.572618433237 656.2658492601616 660.1404802779429 0 0 0
52 1 1 0 674.0629396566613 651.5618313171362 640.7141886445291 0 0 0
53 1 1 0 669.2534574983392 673.2016087772005 636.2179020018582 0 0 0
54 1 1 0 637.3466621493354 666.3718372953825 638.2264687621309 0 0 0
55 1 1 0 654.3610079561913 648.772347447505 642.3496144098906 0 0 0
56 1 1 0 634.4966920445275 682.2629861323342 662.9096759454202 0 0 0
57 1 1 0 672.9206480941258 651.8127565232533 639.8585532397823 0 0 0
58 1 1 0 655.3451678540978 642.6553882660339 644.2852231478853 0 0 0
59 1 1 0 683.9975359445118 665.5473872421585 685.4899221949707 0 0 0
60 1 1 0 636.4709365136896 637.6924278037797 645.7421262293482 0 0 0
61 1 1 0 674.9093535313236 678.2814252040761 635.4985611094564 0 0 0
62 1 1 0 640.8515836796063 637.9196661176392 641.1045518996461 0 0 0
9340 1 1 0 668.9207024612871 634.8664734234872 678.3090355645397 0 1 0
8565 1 1 0 684.8483300162202 666.3621926778084 686.1523884724959 0 0 0
65 1 1 0 657.4977274654566 656.7911281507103 639.8006445692862 0 0 0
66 1 1 0 656.8299649012612 646.7645488131732 636.0551429466677 0 0 0
67 1 1 0 670.5649539894747 652.3925537393164 639.7417578999452 0 0 0
68 1 1 0 667.3489933045322 654.2030533453133 637.8851639829029 0 0 0
69 1 1 0 662.2658777816379 679.4201180677244 682.0586011930408 0 0 0
70 1 1 0 685.5647912238762 673.3216889620377 663.8724603382071 0 0 0
4084 1 1 0 635.1030633357227 655.6529272851674 667.096943636165 0 0 0
72 1 1 0 681.4953032165328 655.9103363674142 638.9190122453172 0 0 0
73 1 1 0 635.9598107928573 637.272542378377 644.5384999109087 0 0 0
74 1 1 0 656.657052739238 669.5550806848229 684.5238455541935 0 0 0
9243 1 1 0 648.7135925053616 634.7277055837114 673.6229828152199 0 1 0
76 1 1 0 675.5515465967796 669.8342543659579 635.5049876678316 0 0 0
77 1 1 0 669.747717347135 653.8518688885689 638.0656199112996 0 0 0
21113 1 1 0 634.1613559591581 650.9858373882423 647.8442131759792 1 0 0
79 1 1 0 654.817565418805 639.3884041119754 640.9388813443126 0 0 0
80 1 1 0 652.4954380510732 638.8654176213479 640.9196299212892 0 0 0
81 1 1 0 669.8278939697667 654.5303126860673 636.8867719078803 0 0 0
82 1 1 0 681.3222985024792 654.46079441858 636.6407963083707 0 0 0
83 1 1 0 675.6876611988683 655.1366396594891 637.528016315413 0 0 0
84 1 1 0 667.686710653353 673.9331318497748 637.7309999525351 0 0 0
85 1 1 0 640.7649667380712 667.965350784256 640.5369295811312 0 0 0
86 1 1 0 641.2582831655769 665.8119568368176 643.5594279917574 0 0 0
87 1 1 0 638.0598775592294 637.2574108026603 670.8944465545284 0 0 0
88 1 1 0 638.0435405564986 685.5575656703679 663.4054612814579 0 0 0
89 1 1 0 677.6378064686701 638.118336540354 670.6546919385308 0 0 0
90 1 1 0 658.3383231079682 655.6389733218022 640.3276903925655 0 0 0
91 1 1 0 673.7287102469547 672.1559662978027 636.8162238532021 0 0 0
92 1 1 0 656.437070479192 643.394653497814 635.10654246184 0 0 0
93 1 1 0 655.884289872174 641.9384707760269 635.2740149117107 0 0 0
1980 1 1 0 638.2824595537869 655.7132219558127 652.6202822055513 0 0 0
95 1 1 0 659.7060011624341 651.8111590138315 636.9820974836374 0 0 0
96 1 1 0 639.9590605179088 635.8375298459504 641.0676085361323 0 0 0
97 1 1 0 656.7139736287269 652.8134507110954 635.2129499371748 0 0 0
98 1 1 0 641.2043497496165 669.2964323098507 640.9118574062729 0 0 0
99 1 1 0 637.0936492540244 667.2695337341167 642.2441492729793 0 0 0
100 1 1 0 685.6996419591071 637.8923508933287 650.5221209208374 0 0 0
101 1 1 0 655.6007526724374 682.5565156051107 672.014864862541 0 0 0
102 1 1 0 674.1809563904942 670.1032181121591 635.1780510508471 0 0 0
103 1 1 0 636.6235763531979 664.5627616463895 642.8539568026841 0 0 0
18715 1 1 0 634.9403471702703 654.3271803123845 666.9678012330032 1 0 0
105 1 1 0 660.2046516004124 684.716968713223 677.4346862161867 0 0 0
106 1 1 0 661.1582189142626 684.519809962905 678.4581675352395 0 0 0
107 1 1 0 637.7972861618771 659.5055723269611 656.2043221727309 0 0 0
108 1 1 0 669.0505969985406 674.0828751696833 638.3833402672019 0 0 0
109 1 1 0 635.1724925117735 641.1879295210674 645.3842350123891 0 0 0
110 1 1 0 670.8443878230316 653.1998243342096 638.6656993828475 0 0 0
111 1 1 0 656.259217169261 674.168981404299 681.2730520879626 0 0 0
112 1 1 0 641.2175245492825 671.3008643253233 644.5304837318686 0 0 0
113 1 1 0 673.6590863168702 681.3835646378391 685.1056112590753 0 0 0
114 1 1 0 636.5178389934824 661.3755109330806 638.029243148258 0 0 0
115 1 1 0 635.0020741413874 636.3201927768331 642.1577881469342 0 0 0
116 1 1 0 635.4993053171734 673.1347944486068 643.7513468364396 0 0 0
117 1 1 0 661.026767688113 677.5345433449745 685.4802380346877 0 0 0
118 1 1 0 665.14841948745 674.2076193833234 637.0224941255234 0 0 0
119 1 1 0 655.9624658518268 676.1884776268706 636.7573511474626 0 0 0
120 1 1 0 641.4918546299266 666.7587972972453 640.2240723186261 0 0 0
121 1 1 0 639.4120707098102 664.2150182021308 642.2957065318003 0 0 0
122 1 1 0 655.5629866126893 654.529355356856 679.0902002163335 0 0 0
123 1 1 0 668.3056018515744 682.2471012482994 685.0735161428136 0 0 0
3062 1 1 0 634.248806817471 665.5806008562283 644.5197284839192 0 0 0
125 1 1 0 640.577526844112 664.5591617965217 641.5645813926565 0 0 0
126 1 1 0 659.966242325273 684.3081690065171 673.7719191964949 0 0 0
127 1 1 0 658.8427676985355 683.201666068794 678.625572009452 0 0 0
4059 1 1 0 635.8807201932938 635.0384572334275 635.9722181258542 0 0 0
129 1 1 0 661.3442218478514 683.2401637703236 682.0203323817583 0 0 0
130 1 1 0 638.3648678726208 658.6479088704992 655.2026334688086 0 0 0
131 1 1 0 668.7584603422505 679.9410396091056 635.235700091849 0 0 0
132 1 1 0 637.2620554975832 637.2367089152889 675.662050663867 0 0 0
133 1 1 0 673.5973502262801 671.1957898263544 635.7769379463863 0 0 0
134 1 1 0 653.9516897322908 644.1191518502586 643.3356467234569 0 0 0
135 1 1 0 663.2553912467497 681.5817590366338 681.9368735437066 0 0 0
136 1 1 0 641.1698496144305 637.5878004264295 675.4453687268342 0 0 0
137 1 1 0 654.5706469389245 652.3743545355462 678.3663461141831 0 0 0
138 1 1 0 662.0968781113828 637.606117695627 672.725631343849 0 0 0
139 1 1 0 637.5016367212708 664.1377081074984 678.268000981714 0 0 0
140 1 1 0 638.9782745918878 665.3618613117244 656.7071548948999 0 0 0
141 1 1 0 658.7860160648637 657.003240206805 679.303151684198 0 0 0
142 1 1 0 636.9603711170979 661.4225564224187 640.6562483775033 0 0 0
143 1 1 0 641.5136615789949 665.3706470831155 642.2164522621 0 0 0
144 1 1 0 663.5565969002228 651.89721963396 636.7839357053325 0 0 0
145 1 1 0 635.6480767793711 684.487253704988 661.8039111471776 0 0 0
11966 1 1 0 677.3755783174953 634.8903462229534 668.943676535738 0 1 0
147 1 1 0 681.7540683593917 678.628586663512 685.3360106200372 0 0 0
148 1 1 0 654.356213217553 649.94755198189 635.3453880066102 0 0 0
149 1 1 0 665.5492899683074 680.6767035776107 683.2866355904905 0 0 0
150 1 1 0 661.5603706488847 636.275505643638 672.626044194269 0 0 0
151 1 1 0 652.908106208525 654.0158042045814 635.3640853610946 0 0 0
152 1 1 0 676.6928820929004 655.1227523154656 638.5274287112189 0 0 0
153 1 1 0 635.0636694662073 635.6794631578006 675.6986159790637 0 0 0
11543 1 1 0 673.2710023361383 635.0397205315979 664.5571547308698 0 1 0
155 1 1 0 677.0893484893003 636.1732803674246 669.4190527951718 0 0 0
156 1 1 0 636.980788694535 649.9074311027674 657.7453704112336 0 0 0
157 1 1 0 685.4290604719032 645.1076111680305 648.9270033745297 0 0 0
4695 1 1 0 671.132041233758 673.4316002230793 634.7431744529235 0 0 1
159 1 1 0 637.5526053327693 636.6223439229501 648.6452974403014 0 0 0
160 1 1 0 638.7345456302893 637.5033461013778 672.1413507443169 0 0 0
161 1 1 0 636.0391412864453 669.4323774935882 654.8699619829875 0 0 0
162 1 1 0 663.9812484176155 651.9526671253908 635.493739226336 0 0 0
163 1 1 0 685.4180849859254 665.4777831903436 638.0239703034803 0 0 0
164 1 1 0 685.079337335742 653.1099824697548 661.9282862010916 0 0 0
165 1 1 0 637.8358223289252 661.2398603292869 649.5022479176862 0 0 0
8576 1 1 0 661.7252700732396 685.437105463182 686.5035599002707 0 0 0
167 1 1 0 656.7826762032446 649.2116641628727 635.5175883657225 0 0 0
168 1 1 0 634.9297192209991 667.3492283906838 637.944708653739 0 0 0
169 1 1 0 676.2112857904511 671.922183534907 636.7366390636366 0 0 0
170 1 1 0 638.0176915954191 665.1302893846114 648.3988029955137 0 0 0
171 1 1 0 637.8439434127866 665.9061337315725 657.2673848379311 0 0 0
172 1 1 0 636.9531278524286 636.1608912919243 668.2577522749102 0 0 0
18823 1 1 0 634.1489493470064 684.7685929827318 667.1805818183996 1 0 0
174 1 1 0 657.039240080127 635.3125714173808 639.0751220788183 0 0 0
1056 1 1 0 638.728472306944 635.1313587611462 672.4258085217549 0 0 0
176 1 1 0 638.9887782071419 664.7970116782049 643.495442214935 0 0 0
177 1 1 0 660.0931332995027 647.916584651722 635.08486637914 0 0 0
178 1 1 0 655.2600516979985 640.3462881569421 638.903758083305 0 0 0
179 1 1 0 640.2576004033527 636.390709440705 673.6692823834271 0 0 0
180 1 1 0 637.7192329707526 663.8315082869851 648.7453862672168 0 0 0
4083 1 1 0 653.0199317554351 634.8401807383107 640.6065253800949 0 0 0
187 1 1 0 659.0593748835302 644.5723209040298 634.8537418870659 0 0 0
183 1 1 0 637.3647245908395 661.5556908152888 648.1823903102755 0 0 0
184 1 1 0 636.6251261790142 664.25585531986 660.9219511790814 0 0 0
185 1 1 0 657.3999174664948 643.5958836964517 636.2917240715432 0 0 0
186 1 1 0 658.7215091873636 645.3310234335379 637.1061101937477 0 0 0
547 1 1 0 653.0549164077469 658.7074322477436 634.8277154855317 0 0 0
188 1 1 0 651.2527414553696 658.6952105381541 638.3881535978611 0 0 0
189 1 1 0 672.1990758831755 654.1137970847767 637.0095545204406 0 0 0
190 1 1 0 661.2572733704664 682.6915291150674 674.8495884812122 0 0 0
191 1 1 0 635.1531742978426 635.0876377571861 653.6608352202483 0 0 0
192 1 1 0 657.690778568755 655.1994323432307 678.1996726567429 0 0 0
193 1 1 0 635.9295574580384 660.3843892346762 640.4507098655995 0 0 0
194 1 1 0 649.5038763111671 653.71398020662 683.228081725311 0 0 0
195 1 1 0 634.6474975984631 664.1890166242579 638.4269754267166 0 0 0
196 1 1 0 638.7519099573103 664.9715725933709 655.2717992915499 0 0 0
197 1 1 0 668.4588525810356 653.7662033997312 638.6219496000319 0 0 0
198 1 1 0 636.1572548713735 636.3399217288494 648.4735169236722 0 0 0
199 1 1 0 681.2245147592797 667.0398173960178 636.7943139283452 0 0 0
2414 1 1 0 665.5858744157897 686.3586062208877 653.0663949431297 0 0 0
201 1 1 0 671.6322646441074 651.7265042004753 640.3670017092525 0 0 0
202 1 1 0 637.7146948556907 664.4115681397362 680.5828050835051 0 0 0
203 1 1 0 644.3867726964376 635.3561618820372 677.8354169532774 0 0 0
204 1 1 0 636.1955871751456 662.518773326195 641.4865266269841 0 0 0
205 1 1 0 638.447050309668 663.4889063512129 641.6153628692828 0 0 0
206 1 1 0 660.3036341160927 651.6622713922851 638.2996786612105 0 0 0
207 1 1 0 667.9554074202996 637.4820740233964 673.9178189104366 0 0 0
8468 1 1 0 634.2451631271092 656.6171672302336 686.1620335025636 0 0 0
209 1 1 0 679.5089579534226 650.7417732412166 639.2172069267386 0 0 0
210 1 1 0 654.6014898799092 651.7767712320766 639.4977790645798 0 0 0
211 1 1 0 637.6996519233602 665.1483246400732 637.4004948226401 0 0 0
212 1 1 0 639.3024160397209 635.657536838449 679.6368318554108 0 0 0
213 1 1 0 666.1185206101899 653.7562096666065 638.3368240479438 0 0 0
214 1 1 0 654.026045948556 649.503420302787 640.1159213051043 0 0 0
215 1 1 0 637.1316467766576 663.5619154063887 642.0310366546101 0 0 0
216 1 1 0 635.0344946618666 674.5900914055212 645.6120826432501 0 0 0
217 1 1 0 640.5635105290066 664.5239050760867 640.1733210338275 0 0 0
218 1 1 0 643.4165219003061 644.4353143542388 685.9558036694071 0 0 0
4052 1 1 0 642.4553027612856 638.2104771134375 686.485138812137 0 0 0
220 1 1 0 672.0861821273413 653.2513438740933 638.0636223937522 0 0 0
221 1 1 0 685.5204094836882 637.8257692801375 645.0837678570842 0 0 0
222 1 1 0 664.6236408074045 637.2701713068448 674.803696727013 0 0 0
223 1 1 0 658.0199101620584 683.9461282648077 670.6885637346808 0 0 0
224 1 1 0 655.0172779374959 656.6005239158577 685.6225963325923 0 0 0
225 1 1 0 638.2643704537919 661.973286047174 651.832288377394 0 0 0
226 1 1 0 654.3455613947767 651.2518840832605 636.8559017205229 0 0 0
227 1 1 0 645.6555577140746 637.3246436566578 646.7816781104511 0 0 0
228 1 1 0 644.4288433192824 636.9477597564704 646.2575086002266 0 0 0
19557 1 1 0 686.2246186080221 685.1524238113302 667.4522666902353 0 0 0
230 1 1 0 639.6475398678382 653.577796627793 663.4342272308513 0 0 0
231 1 1 0 643.3574976316463 638.7860301996642 642.9736277176625 0 0 0
232 1 1 0 643.6673506844525 637.6950093065161 645.326299349683 0 0 0
233 1 1 0 641.9926423470077 638.5340164985248 643.1000213005291 0 0 0
234 1 1 0 640.9901742489122 638.854066670899 644.0052054135288 0 0 0
235 1 1 0 638.9079783368612 638.1077400864193 642.5590344831832 0 0 0
236 1 1 0 639.6245444208405 638.9492997594988 643.5259652052563 0 0 0
237 1 1 0 637.5688480901209 637.9920041819175 642.8691183060743 0 0 0
238 1 1 0 636.9307182483827 639.2384079198257 643.1636808201828 0 0 0
239 1 1 0 642.3384554203914 637.8019415887765 645.7847790184552 0 0 0
240 1 1 0 641.3342649195412 638.6759282421895 645.4041368918791 0 0 0
241 1 1 0 640.2718991509269 638.9049350980133 646.3211686013333 0 0 0
242 1 1 0 638.811771215828 639.676276102129 644.5468576031996 0 0 0
243 1 1 0 639.2822009272478 639.7420782445971 645.8717638012437 0 0 0
244 1 1 0 637.4596569479797 640.0082413823988 644.2744694437607 0 0 0
245 1 1 0 636.82673420485 640.9329648593347 645.1077331912585 0 0 0
246 1 1 0 639.871309306751 637.8442291832195 647.1458602629995 0 0 0
247 1 1 0 638.2978151560841 637.6702418508498 647.5671269614363 0 0 0
248 1 1 0 638.3061634216753 640.0862644558491 646.8191570500794 0 0 0
249 1 1 0 637.7840314899323 639.0997847501301 647.6090826094958 0 0 0
250 1 1 0 637.4466698013713 641.0404529489734 646.4297759314139 0 0 0
251 1 1 0 636.4946077307486 641.3500657109637 647.43891455187 0 0 0
252 1 1 0 636.3326096646356 639.136845221113 647.6370229503143 0 0 0
253 1 1 0 635.786554366856 638.7685870771277 646.4092081578312 0 0 0
254 1 1 0 654.8848806440159 646.7030486695002 676.9009491898021 0 0 0
255 1 1 0 636.2429392219784 664.5008576757788 645.8808212823434 0 0 0
306 1 1 0 686.0356283080866 672.1704976464506 661.6488941147551 0 0 0
257 1 1 0 655.7228885109547 641.5483061303146 641.3629082035375 0 0 0
258 1 1 0 652.1334282578417 640.1389802940594 641.4945787889624 0 0 0
259 1 1 0 661.6635402505196 684.0563160988486 680.8544148033261 0 0 0
2114 1 1 0 640.5854151264299 661.8214871050532 634.7061909185433 0 0 0
261 1 1 0 634.9351510276905 669.1867241997842 662.3010213982836 0 0 0
1890 1 1 0 634.1630462993228 662.7487013838299 683.4310633605473 0 0 0
263 1 1 0 654.5723520031203 660.1011609851421 685.2934597720465 0 0 0
264 1 1 0 635.1985563530038 666.9193041076046 685.5010366467806 0 0 0
1582 1 1 0 685.9916514866804 671.9769073108423 652.3958062196464 0 0 0
266 1 1 0 650.3514156613029 679.5965077166844 635.7480529405731 0 0 0
267 1 1 0 657.4132008489182 685.2086974079145 674.1908347998044 0 0 0
268 1 1 0 678.3655188154206 677.074021241255 685.512418495076 0 0 0
8578 1 1 0 649.3951497903921 656.182695769491 634.5860244226412 0 0 1
270 1 1 0 678.8726708950976 656.420291389637 638.9871369452479 0 0 0
271 1 1 0 657.8618560278596 663.5619506397054 682.1427436236521 0 0 0
272 1 1 0 649.0867124360162 636.9958862699197 642.9113771597282 0 0 0
273 1 1 0 654.5264685669629 640.7161027591718 641.2904717873075 0 0 0
274 1 1 0 685.1316000409042 672.6779896846163 662.6512281581614 0 0 0
275 1 1 0 658.9613140311391 635.9895947771876 661.4440506191456 0 0 0
276 1 1 0 638.4899187723873 636.0560055260007 670.2636880236611 0 0 0
277 1 1 0 685.1128938445838 652.8974078123732 637.6399137727201 0 0 0
278 1 1 0 657.068712247001 657.1669546664273 642.0251586339708 0 0 0
279 1 1 0 657.3613028965079 657.1708175694515 643.366087158893 0 0 0
280 1 1 0 656.9945755387532 655.7254670448402 641.4125631949048 0 0 0
281 1 1 0 656.8127721661394 654.6792867858601 642.4971742314981 0 0 0
282 1 1 0 652.0701537885539 659.7114844452414 638.9312317382337 0 0 0
283 1 1 0 656.032572419716 653.5967235198934 642.2341926468074 0 0 0
8478 1 1 0 665.7052624983565 686.0654303236587 686.525155275235 0 0 0
285 1 1 0 654.760800868963 651.0884342821033 641.7238803619725 0 0 0
286 1 1 0 636.2082873533927 666.4634505057248 681.4983397636015 0 0 0
287 1 1 0 657.9785904318924 656.1240812786011 644.0721666594446 0 0 0
288 1 1 0 659.0158845863699 656.1839773175768 645.034710998167 0 0 0
289 1 1 0 657.5004628084047 654.836537894788 643.66715851702 0 0 0
290 1 1 0 657.87480082834 653.7267309174921 644.3893830603639 0 0 0
291 1 1 0 656.3604997421266 652.4663516687906 643.0438194347221 0 0 0
292 1 1 0 657.266274220439 652.506343421243 644.1225413285522 0 0 0
293 1 1 0 655.5888581981742 651.2711122668806 642.8528598916902 0 0 0
294 1 1 0 655.8605816754368 650.1510187679307 643.6714134594047 0 0 0
295 1 1 0 655.2445381053969 648.9000630816305 643.4195656078265 0 0 0
296 1 1 0 685.2555195608107 643.7795136794856 646.2003449597819 0 0 0
3165 1 1 0 650.4626255878551 661.9976721764428 634.7049265331118 0 0 0
1832 1 1 0 634.4393264453338 639.1093327728291 653.915478522043 0 0 0
299 1 1 0 657.2337631075928 671.9201447909637 684.0486238041135 0 0 0
300 1 1 0 639.1568677567054 652.2954592413857 662.6536855671785 0 0 0
301 1 1 0 671.3858753821283 635.612265314533 674.1480857298159 0 0 0
302 1 1 0 666.7454455065249 651.452561952057 644.2779281379559 0 0 0
303 1 1 0 679.8196922324977 677.2695398980651 685.3663518095091 0 0 0
304 1 1 0 658.0897238397 685.5410254161268 672.9924678425289 0 0 0
305 1 1 0 664.344565267935 651.2184231790881 643.8191794606864 0 0 0
606 1 1 0 680.5910324137839 663.9491082580224 634.5622676602867 0 0 0
307 1 1 0 657.7587785651174 675.2949316806738 682.6607358095166 0 0 0
308 1 1 0 664.1062814456869 652.6871099214698 637.739668677965 0 0 0
309 1 1 0 658.4994121555612 636.0875986610462 670.533570581031 0 0 0
310 1 1 0 660.5391827495637 683.1182062580095 683.2126310299625 0 0 0
311 1 1 0 659.8599181671814 681.8926555224975 683.5843946515926 0 0 0
312 1 1 0 660.1698996822918 646.6178275169336 635.5175502571157 0 0 0
1838 1 1 0 634.4604124542477 686.1431122976617 659.5824440496734 0 0 0
314 1 1 0 660.5499843012657 675.8983853863144 640.4529321185561 0 0 0
315 1 1 0 638.3758855767471 666.5517284184596 651.7668430365055 0 0 0
316 1 1 0 635.456959493901 659.8981784169746 685.3081570252552 0 0 0
317 1 1 0 641.3402246896212 635.4371571866203 680.4394964742607 0 0 0
318 1 1 0 684.6977232035571 636.8632336282595 648.5458226788081 0 0 0
319 1 1 0 637.230754735749 662.9125827684471 647.8221318431114 0 0 0
320 1 1 0 682.5519208369477 655.0954001801643 636.7212754849407 0 0 0
321 1 1 0 638.7754801088795 664.7155007483478 677.9873644243402 0 0 0
322 1 1 0 653.2826564313483 661.7436988635297 637.8606569338929 0 0 0
323 1 1 0 654.952174116269 637.4948014243822 637.5269521817347 0 0 0
324 1 1 0 659.5564591178364 655.0040958699017 645.5975243865952 0 0 0
325 1 1 0 660.6048538901897 654.9599326848682 646.5264451364212 0 0 0
326 1 1 0 658.9841173123724 653.7055468646055 645.1946969284671 0 0 0
327 1 1 0 659.6119914478201 652.5161865126886 645.5047352237942 0 0 0
328 1 1 0 657.6896638756158 651.2988557136349 644.7736926953935 0 0 0
329 1 1 0 659.0761293499434 651.1052206530127 645.4225515062494 0 0 0
330 1 1 0 657.0812456840491 650.1262561344195 644.4024122366806 0 0 0
331 1 1 0 657.802824577693 648.9342739107702 644.4770197786604 0 0 0
332 1 1 0 657.0190629978841 647.7278808470494 644.6397372375043 0 0 0
333 1 1 0 661.232045193173 653.6951392118111 646.8195933889597 0 0 0
334 1 1 0 658.5701698593349 651.7501779365933 648.855848477506 0 0 0
335 1 1 0 661.0061136700425 652.6025793247326 645.8011857178222 0 0 0
336 1 1 0 661.7471599971537 651.5660144255045 645.2770146520388 0 0 0
337 1 1 0 659.8734632198561 650.2699916272912 644.457287019108 0 0 0
338 1 1 0 661.1329651363777 650.861040449034 644.1910752409508 0 0 0
339 1 1 0 659.2452270370821 649.0399024257243 644.1715586454706 0 0 0
340 1 1 0 659.8065003195666 647.7560047146341 644.4790330826573 0 0 0
341 1 1 0 659.2513028710324 647.1789103527732 645.6035724440458 0 0 0
342 1 1 0 655.6729397337286 647.7745107861447 644.1586690959332 0 0 0
343 1 1 0 654.9160205528567 646.5892831815434 644.0214239028126 0 0 0
344 1 1 0 655.6539484626223 645.4627761092953 644.3272241202754 0 0 0
345 1 1 0 635.1483298290794 660.0487958722047 644.0855771759636 0 0 0
346 1 1 0 667.9736706319034 686.2521579714729 651.5746590797584 0 0 0
347 1 1 0 636.7528609485188 664.6229489359771 676.1108346139505 0 0 0
11313 1 1 0 668.4963454842988 635.4533870881958 677.137148391529 0 1 0
349 1 1 0 657.7982522895389 646.5304339979026 645.485981990656 0 0 0
350 1 1 0 657.0465553353963 645.6973761140367 644.338121805112 0 0 0
351 1 1 0 636.5777630323967 663.2231374088368 646.558029521801 0 0 0
154 1 1 0 639.0810422207792 656.1976957510358 686.605614557616 0 0 0
487 1 1 0 635.5466668525082 658.6707133892745 686.1588591895324 0 0 0
354 1 1 0 667.15357456846 674.3315383337635 635.4166169549112 0 0 0
355 1 1 0 685.5992518448178 674.0894188840701 666.2390461673624 0 0 0
356 1 1 0 678.2125838698693 650.66045222924 649.4768097277434 0 0 0
357 1 1 0 678.1872533029178 649.9600869179734 648.2659238554106 0 0 0
358 1 1 0 679.4877910339012 650.5610652029483 650.0868956806564 0 0 0
359 1 1 0 680.5768233615124 649.8701657305028 649.4737781743803 0 0 0
360 1 1 0 683.1139032628213 649.6072259043957 649.2561316575884 0 0 0
361 1 1 0 681.9277365119116 650.255678641112 649.5812220232118 0 0 0
362 1 1 0 683.7110760275092 649.8378313586761 647.9685699413628 0 0 0
363 1 1 0 684.5480704562706 646.0150400300163 649.5020325978994 0 0 0
364 1 1 0 685.2238736556551 643.6731368136537 648.7264230826747 0 0 0
365 1 1 0 678.0158252327947 679.4263131919284 685.3343565781965 0 0 0
366 1 1 0 635.0470292149338 636.1810452886284 672.0522098655147 0 0 0
22526 1 1 0 634.0598056136855 645.0912489499761 661.7512819105023 1 0 0
368 1 1 0 668.2733325221036 653.12421331295 639.8125143391578 0 0 0
369 1 1 0 661.0975667242296 683.8001689803086 684.5076747497897 0 0 0
12828 1 1 0 667.9586617134194 634.7526346371108 661.854588564253 0 1 0
3973 1 1 0 634.9492727675831 665.7193859027947 686.2808720249836 0 0 0
372 1 1 0 656.4896728036359 672.3412646780365 638.5244244364334 0 0 0
373 1 1 0 662.5625936065237 651.8153924360523 639.3984688173115 0 0 0
374 1 1 0 658.3378509222523 647.3986797299734 639.8544729250524 0 0 0
375 1 1 0 658.9065298279029 670.7770654838916 639.5737233173661 0 0 0
376 1 1 0 639.125987060193 668.311981774206 642.2719451553153 0 0 0
377 1 1 0 654.0754513997405 671.7175077964139 641.1350081660562 0 0 0
378 1 1 0 679.0036638918684 648.8873606040232 647.8635140876611 0 0 0
379 1 1 0 678.7104710405532 647.897261171059 646.9061659231676 0 0 0
380 1 1 0 680.2257500382173 648.7274142482295 648.6438128722143 0 0 0
381 1 1 0 680.8882101003644 647.4644436176316 648.7070914223006 0 0 0
382 1 1 0 683.2909191138438 648.2280834285227 649.658370074902 0 0 0
383 1 1 0 682.1644506509425 647.3077099137308 649.2719559499307 0 0 0
384 1 1 0 684.6183857293784 647.6244108960115 649.5640932106496 0 0 0
11947 1 1 0 669.4701746864262 635.533776550755 676.1758495780184 0 1 0
8539 1 1 0 666.9804866530582 685.534820742089 686.2230119842378 0 0 0
128 1 1 0 636.7153222366987 653.8976297634599 653.0055142163127 0 0 0
388 1 1 0 685.4944598641739 639.249143853412 644.7205136819454 0 0 0
389 1 1 0 663.0235534048613 635.6555241313356 662.4504763739018 0 0 0
390 1 1 0 679.6510064178788 654.5316407190319 640.7912717184042 0 0 0
391 1 1 0 665.2152687992376 685.9492492428213 654.4877998426555 0 0 0
392 1 1 0 654.3335430775884 659.9860291554658 639.4502786424177 0 0 0
393 1 1 0 638.4099999675655 638.0272447166233 675.6809846540291 0 0 0
394 1 1 0 653.1856946678886 673.8412439234453 641.4029548391485 0 0 0
395 1 1 0 669.9339464638368 673.3552843248766 637.4707315303729 0 0 0
396 1 1 0 653.3956866948095 672.5967247619949 642.1300048909329 0 0 0
397 1 1 0 652.1371083435679 678.0042889575205 635.88765837556 0 0 0
398 1 1 0 638.1588627434021 667.705257403865 642.9992250233977 0 0 0
399 1 1 0 635.8837130199136 667.4165671845569 642.8498230597186 0 0 0
400 1 1 0 679.0620124062347 646.5687207177274 647.3474789821944 0 0 0
401 1 1 0 678.323812109885 645.3902794733458 646.9061844969616 0 0 0
402 1 1 0 680.3600948123409 646.4086099791085 647.893997738076 0 0 0
403 1 1 0 681.2087576682719 645.5448453780268 647.1464460049693 0 0 0
404 1 1 0 683.2753111352458 646.3973813023289 648.7535387324837 0 0 0
405 1 1 0 682.4783869614381 645.902111789687 646.6586146469408 0 0 0
406 1 1 0 683.7874051765484 646.7286969166098 647.2860656237868 0 0 0
407 1 1 0 683.125764528213 647.9792813825203 646.4852536564666 0 0 0
408 1 1 0 685.109904041573 649.3976606670177 647.7898242725556 0 0 0
409 1 1 0 683.0258409690615 649.3781995208393 646.7159439318067 0 0 0
7922 1 1 0 678.6985211251398 673.0388001625538 634.8258199822109 0 0 1
411 1 1 0 685.3417549113035 646.9854459379444 647.3742381815356 0 0 0
412 1 1 0 661.6377311781354 650.6733303650267 636.0186890821966 0 0 0
413 1 1 0 664.7826116227616 653.0669151501261 635.1165209963968 0 0 0
414 1 1 0 653.4241163979672 660.2569529870188 638.1857542185006 0 0 0
415 1 1 0 654.1546131195807 657.7662593823294 638.6799953553511 0 0 0
416 1 1 0 683.8472194357187 669.1851803149776 685.6974342284001 0 0 0
417 1 1 0 657.6880256495648 648.4186543939124 637.6180089293856 0 0 0
418 1 1 0 650.9730770352128 672.6290691432142 642.5243950130819 0 0 0
419 1 1 0 674.9778464165036 653.2757950494772 642.2286414723196 0 0 0
420 1 1 0 640.8346951805449 670.0676074926739 642.0174056194945 0 0 0
421 1 1 0 639.453683427311 667.7195530636651 640.9981777676977 0 0 0
422 1 1 0 679.1995516159686 644.2270446108168 646.7558206464698 0 0 0
423 1 1 0 679.3571896791979 642.4021381341703 644.9098240322638 0 0 0
424 1 1 0 680.5586591399845 644.624491500852 646.3312960663384 0 0 0
425 1 1 0 680.574697795033 644.7346670066344 644.9403323467789 0 0 0
426 1 1 0 682.3840062922111 646.2083498184129 645.2739682604225 0 0 0
427 1 1 0 681.3952828112904 645.7191851264412 644.4453735465933 0 0 0