LAMMPS data file via write_data, version 2 Aug 2023, timestep = 50000, units = metal

5200 atoms
1 atom types

634.9180009790764 725.0079990209276 xlo xhi
635.0937332347303 725.5412667652695 ylo yhi
635.1886005256381 725.4463994743617 zlo zhi

Masses

1 12.0107

Atoms # full

1 1 1 0 649.5233942369094 664.4673257987099 674.4828513124362 0 0 0
2 1 1 0 650.9226069945666 660.7187575941086 675.8317849887125 0 0 0
3 1 1 0 649.2867973719092 662.0726247425519 674.6551367180232 0 0 0
4 1 1 0 650.0997766657949 663.2802863256675 674.7378557551482 0 0 0
5 1 1 0 651.1368327819322 663.2120015273805 675.6830129269962 0 0 0
6 1 1 0 647.5880667743799 665.9022820376772 674.0902210525122 0 0 0
7 1 1 0 648.1428703845276 664.5280403059908 674.2098707617492 0 0 0
8 1 1 0 648.3733897432659 666.9683678288859 673.9385730898049 0 0 0
9 1 1 0 667.2710640600117 675.9878072717665 661.5435640900525 0 0 0
10 1 1 0 644.8174072455464 666.2212562254177 677.9639271818029 0 0 0
11 1 1 0 652.4977939902486 659.5074209849038 677.1100768056364 0 0 0
12 1 1 0 653.1849975330782 660.6410254317376 677.5945715954098 0 0 0
13 1 1 0 651.3757891023553 664.1292598922516 676.715462709028 0 0 0
14 1 1 0 651.6818433431636 661.9281998472485 676.104212239355 0 0 0
15 1 1 0 651.8320039409037 661.890175973404 679.5425736212501 0 0 0
16 1 1 0 650.0934459762237 665.6207626685338 675.140494454075 0 0 0
17 1 1 0 650.7249569422839 665.4483041355899 676.4216629214965 0 0 0
18 1 1 0 649.5359410842173 666.9091078116485 674.7476056092966 0 0 0
19 1 1 0 636.5800112684855 643.6204694561851 639.3262248205759 0 0 0
20 1 1 0 668.3258384704344 661.1822408435495 643.190385650139 0 0 0
21 1 1 0 651.3314154839907 663.7029021004568 678.0267639469791 0 0 0
22 1 1 0 650.1170097770646 663.8576116477567 678.7212993886243 0 0 0
23 1 1 0 667.651102152662 678.6100776944711 659.3155298161769 0 0 0
24 1 1 0 653.6934327302865 660.5844677557677 678.945695822567 0 0 0
25 1 1 0 652.7133346511738 660.8204623192643 679.9071307256139 0 0 0
26 1 1 0 652.1364445403402 662.5494374915166 678.3573069710118 0 0 0
27 1 1 0 649.9489325486218 666.0468229310931 677.4933758444749 0 0 0
28 1 1 0 649.3893379033133 665.0819130144973 678.4244032832397 0 0 0
29 1 1 0 647.8521574517729 667.3048991511857 677.6511356986966 0 0 0
30 1 1 0 669.9068230866877 658.896336226121 641.4250862563194 0 0 0
31 1 1 0 669.435993926969 668.268876709587 650.829869228637 0 0 0
32 1 1 0 669.4052942960437 672.6592723682156 649.6828533003247 0 0 0
33 1 1 0 647.4867463259137 671.7278624576437 675.5341610826629 0 0 0
962 1 1 0 635.7409137926054 650.2282324594572 678.5854767920808 0 0 0
3033 1 1 0 637.5497647342895 663.4367971162973 642.6885282957506 1 0 0
36 1 1 0 652.5138643865122 661.82084157458 677.2633597155321 0 0 0
37 1 1 0 648.7091738840539 660.2320594234291 677.3215959310724 0 0 0
775 1 1 0 670.1434683753264 662.3103588260178 642.2205107815332 0 0 0
744 1 1 0 667.6860411218822 665.4941256532209 647.0669791687442 0 0 0
743 1 1 0 678.3667903312388 657.2786275567528 638.2874584356489 0 0 0
41 1 1 0 653.7639859891152 635.1425642360086 653.7496873211037 0 0 0
42 1 1 0 670.0533208135877 659.8710452660273 642.4227073819018 0 0 0
43 1 1 0 639.3560192520393 666.3596566099119 637.5486254496353 0 0 0
1518 1 1 0 648.6154324115489 677.3233053849104 671.1616507919576 0 0 0
45 1 1 0 669.0768677790671 673.1253526371861 656.5326726207943 0 0 0
883 1 1 0 664.4863743607253 679.3708216670984 661.21774898438 0 0 0
47 1 1 0 667.3457694549323 676.205223916783 655.7301651751548 0 0 0
1748 1 1 0 641.1807277485279 677.3306419054834 670.4476846069574 0 0 0
49 1 1 0 643.1740746326732 647.2188899542494 638.3040058328805 0 0 0
50 1 1 0 642.7829627743332 646.8355334511153 642.1775944737944 0 0 0
51 1 1 0 647.8807740608345 641.6917542245174 637.3785553329424 0 0 0
52 1 1 0 641.8614133250425 643.4685829171641 637.5429574725126 0 0 0
1523 1 1 0 643.1995197443468 678.546671333947 673.1380374532832 0 0 0
54 1 1 0 646.5338602289205 641.9888489577423 639.3817301869836 0 0 0
55 1 1 0 637.5151675344001 668.5272587793027 639.7611609839025 0 0 0
863 1 1 0 638.7751207073183 640.600863379926 639.0717170752783 0 0 0
57 1 1 0 665.8715483649148 673.4882504591405 658.3995604841066 0 0 0
780 1 1 0 643.0520929638293 642.652982999488 637.9211903762331 0 0 0
59 1 1 0 644.9561593664383 642.2683888934556 641.226419185516 0 0 0
60 1 1 0 637.9126828773036 643.518797744455 642.1918748816722 0 0 0
785 1 1 0 671.9481636756489 661.3121322593798 645.4279036110834 0 0 0
62 1 1 0 638.5819988220354 668.2641071042494 638.9160064304053 0 0 0
866 1 1 0 642.3626132383997 672.6499945876152 671.1667216869891 0 0 0
1058 1 1 0 636.7764865443165 648.1939889673757 679.3169653766557 0 0 0
65 1 1 0 665.4469563213437 673.9392997166761 654.0918817741555 0 0 0
921 1 1 0 639.4435265593988 647.0696755271938 677.9320522542275 0 0 0
67 1 1 0 674.9706903621847 662.8328429137727 646.1892471203755 0 0 0
68 1 1 0 674.0968809446599 659.0858678278059 646.0240158957464 0 0 0
2711 1 1 0 637.1155489804178 664.4122397755631 643.7685427442949 1 0 0
70 1 1 0 666.5066716060969 672.9014332334949 654.2605696412527 0 0 0
71 1 1 0 669.5811920374334 673.0642099470635 653.9240848664648 0 0 0
72 1 1 0 643.0385264822975 645.139680622261 643.7519073872704 0 0 0
73 1 1 0 666.5924350619182 679.1453564727827 658.3889883348943 0 0 0
74 1 1 0 646.9347283487689 643.9639657441123 637.9462704466982 0 0 0
75 1 1 0 646.6039775148906 637.3630547295235 655.2513974958207 0 0 0
733 1 1 0 672.0264204978617 660.8422759857283 641.4993067064686 0 0 0
77 1 1 0 642.8542669347465 642.9755134554888 642.4115030315527 0 0 0
78 1 1 0 666.8743708151168 672.0837691157492 653.16684957076 0 0 0
79 1 1 0 636.4199479790313 641.2547072801926 639.3948042044517 0 0 0
80 1 1 0 666.1207673086532 671.2293370387198 647.3313451001629 0 0 0
741 1 1 0 646.4797630975978 671.6956710485925 674.394045241559 0 0 0
82 1 1 0 635.4133657614775 666.3173476589789 640.4636464543403 0 0 0
83 1 1 0 645.4482976174569 643.5906308457594 641.364059565623 0 0 0
84 1 1 0 666.8422940647911 673.721241160479 655.6734227596683 0 0 0
85 1 1 0 664.9782438423745 675.011048239661 660.2918120473153 0 0 0
86 1 1 0 647.7112793729129 670.7174822826311 672.5453281642308 0 0 0
920 1 1 0 636.3457719383416 644.214079311123 679.3682051829851 0 0 0
88 1 1 0 671.1634649244463 667.9257101935127 648.7082077078381 0 0 0
89 1 1 0 635.3547807673317 669.5015821967374 638.7976616962266 0 0 0
2059 1 1 0 645.6007148067225 678.0900637496466 672.4752241168554 0 0 0
1436 1 1 0 645.3215387485636 636.3431842921154 635.2721795033398 0 0 1
92 1 1 0 637.3506422899598 670.7434411660461 637.9807462100264 0 0 0
789 1 1 0 671.5393121473417 663.8426671240117 645.3752782664144 0 0 0
94 1 1 0 646.0003830785987 644.2334601771604 640.211501956853 0 0 0
822 1 1 0 666.3820277107075 680.0850101438175 654.2604897308175 0 0 0
96 1 1 0 673.7999038321727 668.8982394860886 641.4868014944389 0 0 0
97 1 1 0 646.6385424991079 643.4276242518096 639.2305985439081 0 0 0
98 1 1 0 644.6596645750873 670.0458542726601 673.503199827836 0 0 0
99 1 1 0 646.1983317883289 645.117097030577 637.5243909349899 0 0 0
100 1 1 0 668.8896370342243 676.4084205854379 652.7867254308097 0 0 0
101 1 1 0 669.3043236445345 672.834445842304 645.9094593103694 0 0 0
102 1 1 0 647.8264604432808 662.2275898979179 674.6715346141112 0 0 0
103 1 1 0 646.0916832809315 665.3400117923713 675.9436469371984 0 0 0
104 1 1 0 637.2303933450029 642.5238936178225 641.3148490518886 0 0 0
105 1 1 0 646.397076450927 663.9083695696766 675.819010747729 0 0 0
106 1 1 0 645.9319801563797 667.5484856081044 674.657171480648 0 0 0
107 1 1 0 649.6353025705379 660.8456445974149 675.2468444235906 0 0 0
108 1 1 0 645.1890056177763 668.1826860371207 675.687646545055 0 0 0
109 1 1 0 649.9477850660079 659.8288383758083 677.8836811657701 0 0 0
110 1 1 0 670.8013118819 670.5789230903833 645.4506680692177 0 0 0
111 1 1 0 672.2046503230424 667.2428611940088 646.7479755169311 0 0 0
730 1 1 0 665.313704860592 676.6734968281537 657.0110377610935 0 0 0
800 1 1 0 670.8594323975442 660.6700057573867 644.7179034251748 0 0 0
114 1 1 0 647.5255666569865 643.0480614793852 637.0122069456743 0 0 0
115 1 1 0 676.156569981054 664.2875532085475 644.2664980622245 0 0 0
808 1 1 0 648.0699717229627 639.3807895360425 636.4403692977829 0 0 0
117 1 1 0 670.8742451482818 672.1403086240873 647.4245349306706 0 0 0
118 1 1 0 648.3559775322963 635.8163730569222 655.0677860750977 0 0 0
1982 1 1 0 646.7674797266177 679.9300632104503 671.3814990906642 0 0 0
120 1 1 0 642.4842211871777 645.4610415189576 639.9812968574031 0 0 0
121 1 1 0 665.6455573695803 678.2858362608235 655.2196800919752 0 0 0
122 1 1 0 638.9800335345705 669.1524773086765 637.9521083514558 0 0 0
210 1 1 0 635.36461361694 662.3621105959134 636.5758772149355 0 0 0
124 1 1 0 647.6720856022373 670.9060308773123 676.6079244461098 0 0 0
748 1 1 0 670.579977517741 661.7322355376419 648.4282984069278 0 0 0
126 1 1 0 643.5490103684199 646.8349064754747 640.9621638237948 0 0 0
127 1 1 0 636.6301656386362 671.2007753923527 636.8551156881846 0 0 0
2988 1 1 0 638.2493851097606 662.7687907174791 639.7039467748905 1 0 0
129 1 1 0 671.3660500607936 669.627416504735 644.4736824948149 0 0 0
2014 1 1 0 642.788459160902 674.8903085459966 670.0922873768457 0 0 0
784 1 1 0 642.3937618268088 639.6463473176767 639.2815281754306 0 0 0
132 1 1 0 672.5419533811132 668.8251286517201 644.9839607443465 0 0 0
133 1 1 0 645.6909304001933 668.3024579853223 677.0186801980659 0 0 0
303 1 1 0 678.9801131406406 657.2868057059775 635.3268246494002 0 0 0
135 1 1 0 667.1740689369342 675.100512374213 655.1425969340577 0 0 0
130 1 1 0 662.828441307358 678.937841843521 658.6291617371905 0 0 0
137 1 1 0 673.1740818146371 660.9764004891448 639.3216118221877 0 0 0
1262 1 1 0 644.0207314399921 636.6024490806453 635.9721159741438 0 0 1
2094 1 1 0 640.7780453605776 678.1668641694482 673.1319266051014 0 0 0
140 1 1 0 670.253141684138 669.4371652806288 646.4621888500683 0 0 0
141 1 1 0 667.6545113313673 675.2541954912587 659.0144653897321 0 0 0
142 1 1 0 644.9079231755067 646.6315454807527 643.3166777364884 0 0 0
2987 1 1 0 639.7495276195743 663.0827552598889 639.4968442359481 1 0 0
1018 1 1 0 636.9409537118274 647.4705300148138 677.833103525577 0 0 0
145 1 1 0 669.2633068127298 669.5847038519355 651.6651849418952 0 0 0
146 1 1 0 636.8302484063094 669.442247712689 638.6565325614538 0 0 0
147 1 1 0 665.3555916591583 673.1332229646434 656.0686452262855 0 0 0
756 1 1 0 666.8206838440681 677.0209850961451 651.1758568262883 0 0 0
1579 1 1 0 648.2654749764272 677.1410898586378 673.6628803440034 0 0 0
912 1 1 0 646.4473559570432 637.1784115310749 635.6482592065736 0 0 1
151 1 1 0 648.5427052799761 660.3162836985565 675.8677340703804 0 0 0
152 1 1 0 643.7626753448669 644.1121145959153 643.06573222262 0 0 0
153 1 1 0 648.4324862770312 638.4479201304651 653.1673974440786 0 0 0
154 1 1 0 641.1911025108144 645.1452956576459 640.5046282911982 0 0 0
155 1 1 0 644.5308991623931 673.3653906850983 670.4411289046968 0 0 0
156 1 1 0 643.559163751904 642.5270883433575 635.5617859960881 0 0 0
157 1 1 0 647.4410743573867 636.6500750328355 654.3734069251152 0 0 0
158 1 1 0 676.2811407671043 657.7928869071129 635.9606903468252 0 0 0
159 1 1 0 675.7003017059511 658.6085778240565 637.1587341146429 0 0 0
160 1 1 0 672.5325371357976 668.5921069781671 646.4240749399172 0 0 0
161 1 1 0 642.127023816144 643.3492436243255 641.0253668379214 0 0 0
162 1 1 0 644.9841013858829 644.4187374186879 642.4180030057681 0 0 0
163 1 1 0 665.3427124209295 672.6098741675661 657.325524837688 0 0 0
164 1 1 0 638.662172336969 666.4947627303715 636.4330092369429 0 0 0
165 1 1 0 643.8367041020178 641.8253035342459 641.9111695020711 0 0 0
166 1 1 0 668.443766670813 675.2409289297788 653.2652932810223 0 0 0
167 1 1 0 671.1033005930595 671.2315111816322 648.4393285564987 0 0 0
168 1 1 0 671.810789756009 657.416398617039 641.9201888414993 0 0 0
169 1 1 0 674.5228601888022 667.7872148759002 642.0191527163192 0 0 0
170 1 1 0 636.9900857711394 664.9800591893927 636.4344928541656 0 0 0
171 1 1 0 669.448961395668 673.9918737121083 651.5774294767124 0 0 0
172 1 1 0 668.3790881147145 673.1718114349463 650.5685598557077 0 0 0
173 1 1 0 669.2129464124971 674.1244973650837 653.0485277963425 0 0 0
174 1 1 0 670.7238653602641 673.0015190917358 651.6698986086291 0 0 0
175 1 1 0 647.7950313935978 661.2296566768779 677.9419956661468 0 0 0
2895 1 1 0 635.8781005320238 663.7504981217819 640.3714716690363 1 0 0
177 1 1 0 668.0821089326766 671.2613374171684 653.0213676636048 0 0 0
178 1 1 0 636.44705222395 642.488932946811 640.137497373748 0 0 0
734 1 1 0 677.5408878938022 658.0559877675379 643.6025427806653 0 0 0
1461 1 1 0 637.6514786036615 642.1007224703342 637.516336142859 0 0 1
1736 1 1 0 645.9244157272876 677.0003561304868 674.7561018412088 0 0 0
182 1 1 0 646.9200669104596 661.7246104919828 676.8520793470332 0 0 0
1717 1 1 0 644.9277672606864 680.2321155740901 668.0060925780263 0 0 0
184 1 1 0 664.1586882426876 678.8939621202092 657.9551973355533 0 0 0
185 1 1 0 645.4301044427348 645.8823448712247 638.4614698809572 0 0 0
771 1 1 0 665.8860829830838 670.4080629554344 648.5175891134496 0 0 0
187 1 1 0 643.475543417019 646.4647321243563 643.3711144828901 0 0 0
188 1 1 0 641.6585794546668 644.9453293282672 643.6015070841554 0 0 0
189 1 1 0 638.2146003710677 641.4195371199304 641.3564640740458 0 0 0
1867 1 1 0 647.3609057491919 675.489286137949 670.9515160921386 0 0 0
191 1 1 0 640.1661587367302 643.2841560698888 643.2988744047831 0 0 0
192 1 1 0 673.0093495137678 656.7281633864177 641.4551417878519 0 0 0
193 1 1 0 635.1010555726033 671.166581080316 636.8874129947394 0 0 0
194 1 1 0 669.673844050847 673.9800119569398 646.7592878618663 0 0 0
195 1 1 0 641.4096525680758 642.5022292012953 643.1630923211544 0 0 0
196 1 1 0 640.7871703780022 647.3808219941732 638.0715625151769 0 0 0
787 1 1 0 647.1125229461991 668.4785011276585 677.1898511827247 0 0 0
2004 1 1 0 647.1589236439684 677.2237653647786 669.1915937730475 0 0 0
199 1 1 0 644.8662287740476 646.2654056058296 640.9335128350222 0 0 0
200 1 1 0 649.3764928867944 636.1182354192401 653.1258124908612 0 0 0
201 1 1 0 641.7530389175294 671.0254096933935 635.592561807518 0 0 0
202 1 1 0 645.3130114828764 645.8000757902244 642.239955317788 0 0 0
203 1 1 0 678.2443624957857 658.3520587668236 637.14179655979 0 0 0
204 1 1 0 644.108145524901 646.16517697704 638.0036209708287 0 0 0
205 1 1 0 663.9069480800903 674.8227331361692 658.1565839718392 0 0 0
206 1 1 0 648.1894895962681 637.019529442681 653.2114687987456 0 0 0
1211 1 1 0 640.1057926719541 643.148070970514 636.0696455282953 0 0 1
857 1 1 0 676.9045485174331 655.7853492031302 639.7233369835435 0 0 0
209 1 1 0 636.0675271574769 666.9187600864907 635.2225943643576 0 0 0
1995 1 1 0 648.0143621195606 674.6025350284395 673.7584839063495 0 0 0
1369 1 1 0 635.855637643293 645.4183655346075 676.4016770151711 0 0 0
212 1 1 0 679.8386687733916 658.8525974379307 638.9816350521456 0 0 0
858 1 1 0 671.0897011092999 658.1447065289731 640.8997874981034 0 0 0
214 1 1 0 678.8090274948295 662.1007771943481 643.3582667629915 0 0 0
880 1 1 0 664.0116056576597 680.2958980660931 654.6533843165964 0 0 0
216 1 1 0 649.2031813962734 667.2070863968592 677.1250397851533 0 0 0
1005 1 1 0 637.537666751179 649.033791194033 677.5257796186908 0 0 0
218 1 1 0 676.6648553481918 664.7180456930879 641.468769957244 0 0 0
219 1 1 0 654.1916848049999 635.605505219946 656.9138542568795 0 0 0
220 1 1 0 654.0004645389965 635.2691048383722 658.3034272236142 0 0 0
221 1 1 0 653.1373783512624 635.205911792533 656.0451469613433 0 0 0
222 1 1 0 651.7177033220423 635.5813202426641 656.4789473619669 0 0 0
820 1 1 0 679.0472302089892 659.411024731769 642.6450763458716 0 0 0
2859 1 1 0 635.0657996036895 663.0023624079815 645.8462642669404 1 0 0
1351 1 1 0 638.3822051972788 642.5482914889086 635.2625055670937 0 0 1
740 1 1 0 663.9990708341126 678.0982152596168 660.5376266649318 0 0 0
266 1 1 0 635.5099302240628 663.506477066207 637.7106398012477 0 0 0
961 1 1 0 639.8174461918354 648.415445478956 677.9382410951844 0 0 0
229 1 1 0 651.7206329473275 635.5575220125008 657.9987534206156 0 0 0
230 1 1 0 650.3997187637816 635.6802792543238 658.8138644932343 0 0 0
1035 1 1 0 635.0553753142918 648.0732264235734 675.5272134618323 0 0 0
232 1 1 0 649.125577804325 635.9545444097787 657.9325983849467 0 0 0
890 1 1 0 636.1199658032322 647.3360580179294 674.8761539491408 0 0 0
234 1 1 0 646.406944705499 635.4149318808016 657.093046642005 0 0 0
788 1 1 0 676.6676261197936 659.5858494524488 642.0033100931695 0 0 0
765 1 1 0 640.5330905256225 643.0758960391933 637.410540672461 0 0 0
762 1 1 0 644.9211928678726 667.6138737109094 677.9937340221089 0 0 0
1669 1 1 0 644.2640111716124 679.9822442510576 671.5923007052597 0 0 0
239 1 1 0 648.447088546243 637.2018429258322 658.0340855152385 0 0 0
761 1 1 0 677.3729017752679 655.9722579378864 638.1398292912954 0 0 0
241 1 1 0 646.4710883072062 636.7510659536389 656.5993107863301 0 0 0
242 1 1 0 647.1872541821897 637.6534074196392 657.4879442080302 0 0 0
243 1 1 0 664.3006075630077 675.6241603335212 657.0474325621213 0 0 0
244 1 1 0 645.837572727576 669.2919540259777 672.889542668872 0 0 0
245 1 1 0 651.5231434177738 636.965485151842 654.3044850535837 0 0 0
246 1 1 0 651.0798240653004 636.8677859226356 655.7946476826288 0 0 0
247 1 1 0 652.6989814000354 637.4207237338957 653.5399251878256 0 0 0
248 1 1 0 653.7344771398829 636.4781059132001 653.416648331014 0 0 0
249 1 1 0 648.583684162206 669.3513646942271 674.234674721269 0 0 0
1441 1 1 0 638.4515543530918 644.1665656736948 675.7483715686197 0 0 0
2086 1 1 0 642.2088096813587 675.9459127415246 674.1706376946688 0 0 0
882 1 1 0 647.0891118001974 672.1839528288451 672.9995140611518 0 0 0
1958 1 1 0 644.6716347348909 676.521806592777 670.830015934083 0 0 0
1049 1 1 0 638.2770593109 646.6879215922379 675.8034311502732 0 0 0
2990 1 1 0 635.2789464866999 660.6558843314224 640.8761674675454 1 0 0
864 1 1 0 640.3852886277639 646.0673043209252 635.4493761933641 0 0 0
257 1 1 0 670.8114436458898 669.1971074726273 650.5414295751657 0 0 0
992 1 1 0 639.1146822154328 649.3400484283849 675.7768810953155 0 0 0
259 1 1 0 664.4038952099113 676.3736916143439 654.8030106660759 0 0 0
260 1 1 0 646.0146459979374 665.7417517570337 677.2869558207991 0 0 0
261 1 1 0 669.0481836285738 665.7586962082387 645.1317633140388 0 0 0
262 1 1 0 650.1588476827485 660.234036994188 679.2442307865036 0 0 0
746 1 1 0 674.8962961241809 656.6259721531467 638.1662003329361 0 0 0
264 1 1 0 648.018476930254 664.9200976194426 678.2551592533683 0 0 0
2129 1 1 0 644.1519060739157 674.5304012756642 669.8754393573677 0 0 0
888 1 1 0 637.5803429616161 667.7727328208123 641.0885868945002 0 0 0
267 1 1 0 671.8047955356211 666.8472053700305 648.0406756726669 0 0 0
268 1 1 0 664.9290913516712 676.537899148246 653.5153661050892 0 0 0
269 1 1 0 669.0822906021822 661.9968709745788 646.4787918320764 0 0 0
270 1 1 0 651.0797574944655 659.7227935445562 676.8993708158417 0 0 0
1570 1 1 0 644.3150540302316 679.0689323683641 672.6565513579508 0 0 0
272 1 1 0 647.2489116177652 663.5314043175225 674.6735842208631 0 0 0
273 1 1 0 646.450523745364 666.2564468876903 674.8588195436703 0 0 0
274 1 1 0 645.5454401863997 645.5646331681714 639.8613527170795 0 0 0
275 1 1 0 647.0797032166383 638.7331039171529 655.3699115183838 0 0 0
276 1 1 0 647.4459667180626 638.9436423765367 656.7617402777296 0 0 0
277 1 1 0 647.9855241613739 639.1945567564092 654.3656868506682 0 0 0
278 1 1 0 649.11150848929 640.0344825077209 654.7514345992847 0 0 0
279 1 1 0 649.7073219869023 639.0256253783256 652.7117189781228 0 0 0
280 1 1 0 650.0719827647916 640.0744199290201 653.6664871556173 0 0 0
281 1 1 0 650.7334847313908 638.0723603438653 652.4207604596003 0 0 0
282 1 1 0 652.1551645988369 638.4516306846947 652.603354654393 0 0 0
283 1 1 0 648.804944387522 639.3403154041771 657.0798614636774 0 0 0
284 1 1 0 649.324910927249 638.3302478411916 657.9801869340736 0 0 0
285 1 1 0 649.6566716159203 639.8207390307402 656.0492765390449 0 0 0
286 1 1 0 651.019488735663 639.4967578356365 656.0795242783109 0 0 0
287 1 1 0 651.4621778308386 640.3132962451184 653.8959135741625 0 0 0
288 1 1 0 651.9334560526298 640.1196110938431 655.2148885987439 0 0 0
289 1 1 0 652.3848020206985 639.8184883679564 652.9124727484482 0 0 0
290 1 1 0 653.6969622385086 640.3319801698066 652.9920672886334 0 0 0
291 1 1 0 650.6675180185323 638.0069750978261 658.0450835636486 0 0 0
292 1 1 0 651.0560800883086 637.1031749628941 659.0734874675239 0 0 0
293 1 1 0 651.3629773597136 638.119626574255 656.6917508890454 0 0 0
294 1 1 0 652.816413889116 638.249890016929 656.9003393152249 0 0 0
295 1 1 0 653.506960631345 639.9669640398481 655.4006538612582 0 0 0
296 1 1 0 653.5771103566966 638.453904089397 655.7614568476196 0 0 0
297 1 1 0 654.4192243953548 640.1774934010236 654.1851016070974 0 0 0
298 1 1 0 655.6675641942422 639.5280695527176 654.3286066137622 0 0 0
299 1 1 0 650.5557996591664 636.880436365735 653.2288273188155 0 0 0
300 1 1 0 648.7948056834487 669.0624732600046 675.5783310708614 0 0 0
301 1 1 0 667.076722224305 679.4035976078171 660.4768801138997 0 0 0
302 1 1 0 642.9465641067976 644.1301105802532 639.9196623676906 0 0 0
731 1 1 0 679.7747478019212 656.7876504084699 639.0444372698795 0 0 0
1438 1 1 0 637.512654952273 647.6721065121756 675.0221816248302 0 0 0
848 1 1 0 665.6856825944602 676.3120112259745 660.0010747987772 0 0 0
829 1 1 0 674.5483946215722 656.292536360577 639.4862207370643 0 0 0
1968 1 1 0 645.1078295651961 677.8488981950815 667.9253320621497 0 0 0
1609 1 1 0 641.1900438957795 678.7287380827173 670.4072687257586 0 0 0
1558 1 1 0 646.5313502483103 677.9954011862322 668.13357850344 0 0 0
1726 1 1 0 641.9600276486634 678.8859179426447 672.6161816623966 0 0 0
807 1 1 0 666.4794808922611 675.517556224627 647.8507509440064 0 0 0
456 1 1 0 639.773366071868 663.5148473462662 635.6598975567213 0 0 0
591 1 1 0 639.2376551968847 664.157870801659 638.5055623060625 0 0 0
860 1 1 0 644.3004317924685 671.1436809074182 671.2895289525916 0 0 0
878 1 1 0 640.0359273749881 640.1179990711857 638.6009812384127 0 0 0
840 1 1 0 678.5339052862678 657.536569305352 640.5223633556728 0 0 0
861 1 1 0 639.4882901727373 646.9292233968617 637.6385157741939 0 0 0
2037 1 1 0 641.8513296194407 679.4477380864273 671.3778528493933 0 0 0
1555 1 1 0 643.0132497252692 680.1245135978875 670.942282814131 0 0 0
1507 1 1 0 648.8418876898027 675.7519179805795 673.5546286893544 0 0 0
747 1 1 0 673.2897489081965 661.3862626023738 644.9399726969334 0 0 0
1546 1 1 0 641.0503973778418 675.7132117265161 673.4472828497849 0 0 0
2125 1 1 0 648.2711038322282 673.2685724983121 673.6006532656729 0 0 0
853 1 1 0 675.6337851615499 655.8046949186869 640.2957958266753 0 0 0
485 1 1 0 638.2937227034067 664.8221692525115 639.3712869083712 0 0 0
1631 1 1 0 648.4752830533256 679.3947445986444 669.5765237300368 0 0 0
2898 1 1 0 636.9220406115684 662.0674967861651 639.6399569610442 1 0 0
328 1 1 0 647.4735855353937 663.5410578198638 678.1820125502402 0 0 0
329 1 1 0 649.507428290939 662.6882326595796 679.1836864178927 0 0 0
330 1 1 0 647.2636594705236 666.0365395639262 677.9228464063892 0 0 0
331 1 1 0 668.905921066025 678.5421603770999 655.7322508137884 0 0 0
332 1 1 0 653.3322249110315 636.6772730969104 660.1217510993159 0 0 0
333 1 1 0 654.3209891792701 636.4183459117496 659.1176959833665 0 0 0
334 1 1 0 652.2087824287872 637.4941097551558 659.7770206216784 0 0 0
335 1 1 0 652.7108158486508 638.7225223081134 659.2671048197445 0 0 0
839 1 1 0 679.3657322668524 660.9082804258384 643.1942022913025 0 0 0
337 1 1 0 647.3446828414309 661.1798371740318 675.5279897862738 0 0 0
338 1 1 0 654.7708932707492 637.7390792247099 655.6879848142672 0 0 0
339 1 1 0 654.868850605265 636.8423806607265 656.7950380869624 0 0 0
340 1 1 0 655.9186721950825 638.5806702713764 655.3562246813848 0 0 0
341 1 1 0 656.3733122405631 639.0111175841292 656.659198112469 0 0 0
342 1 1 0 654.7418398674513 637.6880128594697 658.2143271481441 0 0 0
343 1 1 0 653.4185688211511 638.5166525835166 658.0878583489304 0 0 0
344 1 1 0 655.2249547846661 639.1242268994682 657.4991593816197 0 0 0
345 1 1 0 654.2570988415332 639.9348780106548 656.9221160787424 0 0 0
2038 1 1 0 648.4535982051257 679.4371876069738 668.1542455497216 0 0 0
1428 1 1 0 637.3204392775774 643.5578705949475 676.210642497758 0 0 0
966 1 1 0 638.4111294988529 641.6451023378681 636.3441565445345 0 0 1
1003 1 1 0 640.4083707626802 640.0964173517468 637.2447963031923 0 0 1
350 1 1 0 672.8904055694832 658.0281120675962 639.3369687360904 0 0 0
351 1 1 0 635.5888715767388 666.2247986669215 638.0530500445807 0 0 0
352 1 1 0 641.2181128139107 641.0887571649627 643.0151980440256 0 0 0
353 1 1 0 635.0984219408481 668.3724287729312 636.3762316854833 0 0 0
847 1 1 0 647.9066417757894 669.5356536254443 676.5811500019958 0 0 0
355 1 1 0 641.4841533853859 646.2791711410407 642.1107449794504 0 0 0
356 1 1 0 672.205294553356 660.2591360015218 640.218712667652 0 0 0
357 1 1 0 676.4132961603591 665.8827263067006 642.2749813312649 0 0 0
358 1 1 0 648.1432391420635 662.447741995057 678.7256652201118 0 0 0
359 1 1 0 665.3181249906138 677.8016153852227 653.064990203281 0 0 0
360 1 1 0 666.5365852455287 677.8854450379525 652.2729683944556 0 0 0
361 1 1 0 642.4762608160222 670.9690458090865 672.9313884402436 0 0 0
362 1 1 0 635.3619851494859 666.9873324310184 641.6971183001674 0 0 0
363 1 1 0 670.1139786435037 663.2418082743393 643.271302358272 0 0 0
364 1 1 0 643.6711064277533 670.5392294389789 672.4151006403489 0 0 0
365 1 1 0 646.093184991577 637.9965833001054 636.7421987977258 0 0 0
366 1 1 0 665.0275827761456 677.4943986888215 659.6730334610924 0 0 0
367 1 1 0 664.7661365047293 674.166059868584 659.1203606478016 0 0 0
4006 1 1 0 635.0581944488413 646.0274291147197 678.619658788039 1 0 0
369 1 1 0 671.8781226715762 670.1010795512003 648.348485111658 0 0 0
843 1 1 0 643.8648676100623 668.6388983927885 675.32086308586 0 0 0
371 1 1 0 668.7244109947628 679.8018452733871 654.8721896999324 0 0 0
372 1 1 0 670.2170367813803 668.8083840874003 648.0476801723789 0 0 0
373 1 1 0 645.7466056325944 671.153393304904 671.4115658084519 0 0 0
374 1 1 0 639.8558679611049 643.2449964558282 638.644946036903 0 0 0
375 1 1 0 644.3041208500683 672.2770498803508 674.7725172285399 0 0 0
376 1 1 0 667.7096911879058 676.4746243355464 658.1631196234141 0 0 0
377 1 1 0 667.667420583388 679.6428461589501 653.8505911221351 0 0 0
378 1 1 0 673.6733271145905 658.6624139170848 638.4288659696226 0 0 0
379 1 1 0 640.1893478791669 644.69606529181 643.485186079308 0 0 0
380 1 1 0 650.4071975424583 661.6120992228714 679.5224402450602 0 0 0
381 1 1 0 671.41390804746 663.7074127326374 643.9658016190286 0 0 0
382 1 1 0 675.9251977467896 655.9684591840806 637.4869237822553 0 0 0
758 1 1 0 668.0988157909042 669.7722956790241 648.1265323307586 0 0 0
384 1 1 0 636.3239746677544 668.7002821269615 637.2388776964277 0 0 0
385 1 1 0 665.0720425542489 679.1122418970253 654.1043871049645 0 0 0
824 1 1 0 674.1606620289748 656.3275080988828 642.2911441715222 0 0 0
2844 1 1 0 640.646111471624 664.0518944983287 640.2473189131609 1 0 0
2068 1 1 0 644.4381275904482 676.6860140611026 668.443656694312 0 0 0
1505 1 1 0 646.6135866933988 675.9789794257358 669.7117943654542 0 0 0
884 1 1 0 635.4757305530848 662.7982970860617 639.135752393503 0 0 0
745 1 1 0 669.2978305792142 662.1737849262181 647.9388616328257 0 0 0
1534 1 1 0 642.3434629512507 677.6847555066009 667.7838775466814 0 0 0
862 1 1 0 639.3938457419287 646.2209402036216 636.4114699226816 0 0 0
873 1 1 0 644.7459696989132 641.145458463443 637.0080057690054 0 0 0
1967 1 1 0 643.057926698119 676.8079568724187 668.585978832187 0 0 0
2047 1 1 0 644.944251057854 677.6224675619743 673.9359580034791 0 0 0
834 1 1 0 671.2264813787882 660.5736807675447 647.9240379941945 0 0 0
1984 1 1 0 642.3778511643503 676.4240959031084 669.9448048278359 0 0 0
1996 1 1 0 643.270741422272 676.1527176028438 672.505963227182 0 0 0
1548 1 1 0 640.1985006140108 676.6927698855867 671.3174541448295 0 0 0
1496 1 1 0 639.8192744277364 675.353914527466 670.8716781024059 0 0 0
2084 1 1 0 640.4037446567767 676.8235017080419 672.7579349363073 0 0 0
2056 1 1 0 644.2954534335299 679.0537555189528 667.6674664097984 0 0 0
877 1 1 0 666.7733245571824 678.6511987703799 661.6488247705726 0 0 0
867 1 1 0 641.9318682864514 672.2060814110381 672.3945767751976 0 0 0
868 1 1 0 642.9313263519085 672.177650504019 674.9229886673463 0 0 0
1608 1 1 0 643.3619008953896 676.5362786683581 671.170492632685 0 0 0
2899 1 1 0 638.0564919870313 664.3073970725115 641.7022668123392 1 0 0
790 1 1 0 672.5039658209622 663.8953097375929 643.1989630756332 0 0 0
1733 1 1 0 646.6520756311638 675.1213136211941 673.4821138693522 0 0 0
1972 1 1 0 648.6847397922533 675.9126411646081 671.1793938035382 0 0 0
1472 1 1 0 641.8061659342097 639.7864726221092 636.9618249515938 0 0 1
1512 1 1 0 640.692183970234 674.3810846780322 671.3755859603145 0 0 0
2695 1 1 0 640.3024683279594 666.3068169403149 640.7783387190156 1 0 0
2838 1 1 0 641.4800164211089 665.5482648282959 638.5727018464828 1 0 0
891 1 1 0 645.3155269254613 673.4200999794557 671.6350181268012 0 0 0
626 1 1 0 640.1226846756526 665.0386123607644 637.6879849090659 0 0 0
2932 1 1 0 635.6838176083993 666.1930874974144 644.1907560062554 1 0 0
1529 1 1 0 645.7750716224198 675.5565698487374 674.6230385089704 0 0 0
2095 1 1 0 645.6165312594852 676.7338978554267 671.8032987839468 0 0 0
3038 1 1 0 638.3018975254267 665.5699111122998 642.1733783113293 1 0 0
875 1 1 0 648.5500756592668 671.9379934052808 674.4048157955829 0 0 0
1494 1 1 0 644.6411421727612 673.5351452586393 674.1829852271075 0 0 0
2912 1 1 0 635.4753991607405 663.0162303319521 641.7163732585832 1 0 0
1471 1 1 0 644.5454533850069 638.0551609907974 636.6706034892294 0 0 1
736 1 1 0 669.457643482197 661.1150804190103 642.3619627329007 0 0 0
874 1 1 0 665.5240574708571 679.1264378450188 662.1975202318719 0 0 0