LAMMPS data file via write_data, version 2 Aug 2023, timestep = 50000, units = metal

12520 atoms
1 atom types

642.5425288550441 721.6374711449516 xlo xhi
642.9884232734781 721.9005767265031 ylo yhi
642.9448149834793 721.9441850165019 zlo zhi

Masses

1 12.0107

Atoms # full

1 1 1 0 658.5305650540442 648.5395639501666 667.5238058309399 0 0 0
2 1 1 0 647.8853144407786 645.9813301314475 675.5274923204046 0 0 0
265 1 1 0 665.093323851067 643.6674359010572 665.1758283446256 0 0 0
4 1 1 0 644.5556324375494 644.1408673397301 646.655491007265 0 0 0
1785 1 1 0 677.8136782287974 682.2410820338844 682.1928438478097 0 0 0
748 1 1 0 646.3862748961803 644.3704019616474 673.9454166931727 0 0 0
6896 1 1 0 643.8136206231937 676.8369273901644 665.5724193252968 1 0 0
8 1 1 0 648.6597388444144 646.8070232346997 676.3139990006676 0 0 0
7647 1 1 0 681.8864632823837 666.326086689946 646.1278308895346 0 0 0
10 1 1 0 654.0776768234683 645.6680889988914 675.027256583077 0 0 0
11 1 1 0 661.4556786635369 644.7099082814835 668.144829548618 0 0 0
12 1 1 0 660.0530176296095 681.3880181691402 650.1341498951294 0 0 0
410 1 1 0 648.5546495444636 649.7722754510487 682.1058226771104 0 0 0
14 1 1 0 675.4130948130422 680.2516538197766 674.3404418373482 0 0 0
974 1 1 0 671.7418194700998 682.1755623973851 647.8314039366361 0 0 0
16 1 1 0 667.7314871700038 644.982576717096 664.3775158020687 0 0 0
17 1 1 0 643.9995327892813 676.815524757397 644.2894282089056 0 0 0
18 1 1 0 656.7954417567728 648.8821867568533 669.3557143056203 0 0 0
19 1 1 0 671.2986257858558 672.9409295206842 681.59611482483 0 0 0
20 1 1 0 676.5007071337268 680.6670971232426 662.307175676735 0 0 0
21 1 1 0 678.3579524022143 680.1791449783179 655.0564773257375 0 0 0
1499 1 1 0 655.2720532259475 647.4510574801587 681.2722095479824 0 0 0
1483 1 1 0 670.7675426134683 643.0918143915136 674.4834719751957 0 0 0
4452 1 1 0 669.0434004179242 643.2773872869019 644.0306852565344 0 1 0
25 1 1 0 676.4174964760919 644.662470527314 679.0311412060998 0 0 0
26 1 1 0 643.8834593089424 667.7384229100676 647.2453421195091 0 0 0
27 1 1 0 656.3481097925807 649.9888874365629 668.6123925346724 0 0 0
28 1 1 0 654.6778169875159 644.3716375644163 675.5002740169531 0 0 0
29 1 1 0 670.0325506549797 643.9399136350911 657.9441233520297 0 0 0
30 1 1 0 674.8299039944826 679.7396293002103 660.7380588181569 0 0 0
7213 1 1 0 644.1686458933331 678.5549556465169 663.9433534505786 1 0 0
32 1 1 0 645.5728190690439 658.8228408606194 655.5232118019981 0 0 0
33 1 1 0 678.3431601465857 680.7612742403398 653.799973145878 0 0 0
34 1 1 0 676.103051653152 680.1349702436795 661.016191631295 0 0 0
707 1 1 0 646.1550031714957 649.758401400697 682.2424537432548 0 0 0
36 1 1 0 650.1474995376373 646.5629974850447 676.3916146302734 0 0 0
37 1 1 0 671.9946925345637 677.9503200545756 681.4949689397514 0 0 0
38 1 1 0 650.1726883270121 660.3413690617255 658.8959601648395 0 0 0
39 1 1 0 645.515853024583 644.2219737788151 644.5050203258401 0 0 0
1556 1 1 0 661.5225057851065 644.3256419704838 657.7110872964118 0 0 0
41 1 1 0 668.8367498372718 652.958377938338 658.7232490563671 0 0 0
42 1 1 0 669.5520325960493 681.1999649011613 646.7675598392581 0 0 0
43 1 1 0 650.2469217071601 659.2354909680856 659.8248255290133 0 0 0
1355 1 1 0 653.3978312115092 667.0520250636333 680.5364941282407 0 0 0
45 1 1 0 680.8788894301412 660.3950467919664 649.6807571227431 0 0 0
46 1 1 0 673.1511642036176 673.8963778278895 679.4927040098734 0 0 0
2937 1 1 0 675.8903992228888 645.5782561379394 682.2920845580553 0 0 0
48 1 1 0 643.2985533809666 647.8158281341695 677.0808302186081 0 0 0
49 1 1 0 643.5918756839573 668.916574189681 646.4848661656762 0 0 0
401 1 1 0 678.9250609995354 682.0862426946363 651.3675750372824 0 0 0
51 1 1 0 644.4107652180272 648.3167973091973 643.5044235204848 0 0 0
52 1 1 0 680.095932903036 677.1008267977843 658.5326411064234 0 0 0
6811 1 1 0 643.6807012584726 679.880822583269 663.5495388259504 1 0 0
54 1 1 0 670.252153715917 643.8361433444289 672.4021404404983 0 0 0
55 1 1 0 678.1089120728177 656.3965112770599 649.6149546388796 0 0 0
56 1 1 0 679.0659401175981 662.4617059300745 650.332798096936 0 0 0
57 1 1 0 678.1391327034244 663.5364291329279 650.5242668967036 0 0 0
58 1 1 0 678.5167210943919 661.1996562485891 649.8850242893874 0 0 0
59 1 1 0 677.1620476250798 660.935754178244 649.9091663055837 0 0 0
60 1 1 0 677.7451833737728 658.6880335917601 649.6696918563949 0 0 0
61 1 1 0 676.7655005433674 659.6066878139537 649.7960705839292 0 0 0
62 1 1 0 677.600592160595 657.5015829956573 650.2991309099601 0 0 0
63 1 1 0 675.6779685712829 656.8137846689453 650.4492814749686 0 0 0
64 1 1 0 676.7492896635226 663.2881870838658 650.0343776160013 0 0 0
65 1 1 0 676.6677563471507 664.1573450510742 648.8827406487159 0 0 0
66 1 1 0 676.2842906713271 661.9816524126883 650.2616688086504 0 0 0
67 1 1 0 675.2101508311162 661.5109726010746 650.971829139275 0 0 0
68 1 1 0 675.508485491793 659.228995099864 650.3549943504621 0 0 0
69 1 1 0 675.087741714135 660.138195855769 651.308086317697 0 0 0
70 1 1 0 674.8603759838392 657.918804910191 650.249225300364 0 0 0
71 1 1 0 673.5532796309683 657.596224963635 650.7508145879899 0 0 0
72 1 1 0 652.3124690478628 648.2093257101284 681.3782917822721 0 0 0
73 1 1 0 679.4973216065849 660.2344759415887 649.5722336155437 0 0 0
74 1 1 0 679.0582871614549 658.9081367936683 649.3289325798653 0 0 0
75 1 1 0 647.4796104522972 645.5497379290896 644.6671966869478 0 0 0
76 1 1 0 671.9724063691566 648.9761446509018 656.5312343194771 0 0 0
77 1 1 0 660.1405826871639 645.7522543739436 661.2683482539996 0 0 0
78 1 1 0 666.0215893474812 674.8774430251129 645.1671624709379 0 0 0
79 1 1 0 647.7252553859809 677.3044720352904 643.8997555180497 0 0 0
6654 1 1 0 643.9979394094341 681.5127347039609 667.000569649424 1 0 0
81 1 1 0 654.4593357033383 679.2833806720846 648.6852944457329 0 0 0
82 1 1 0 675.2661930475876 678.9056033470849 676.4853070123861 0 0 0
83 1 1 0 653.1968401438751 679.0810940255102 648.1008506083009 0 0 0
84 1 1 0 642.891649728325 666.8114356003761 647.5144194736378 0 0 0
85 1 1 0 678.4121777038972 644.5735941735664 673.7641207743249 0 0 0
86 1 1 0 666.8875446205036 677.1412886435081 645.6864117489718 0 0 0
87 1 1 0 660.7282206463831 681.1666754973725 646.7947882423163 0 0 0
88 1 1 0 666.9842291732755 678.3880800067992 646.4129849658414 0 0 0
89 1 1 0 644.3993698317757 647.55136024411 644.696483243801 0 0 0
4062 1 1 0 673.5182715116734 643.4355794623676 645.8820725788687 0 1 0
23 1 1 0 672.4280993402394 682.0659202197844 669.8934181949445 0 0 0
92 1 1 0 652.6030149188696 680.82642253265 645.7508481174706 0 0 0
93 1 1 0 671.8813940221952 680.474566003977 646.0743902652229 0 0 0
94 1 1 0 668.2179000118715 680.5463568404156 646.8530458291843 0 0 0
95 1 1 0 671.3137401055792 646.4931258050439 669.6046343614283 0 0 0
96 1 1 0 645.5165412586247 675.8974968826711 646.1972266708423 0 0 0
97 1 1 0 675.9129752311122 680.9507543540935 681.3937261843437 0 0 0
98 1 1 0 672.1387846497762 679.7298961769827 669.4592835491547 0 0 0
99 1 1 0 644.9005773182078 645.0631850564272 645.5854564024053 0 0 0
100 1 1 0 646.7410219478254 676.511749888614 668.0008280880596 0 0 0
101 1 1 0 680.1021495510274 655.4123045107377 649.9646803418506 0 0 0
990 1 1 0 674.6546084384393 682.233263160755 672.9086587568604 0 0 0
6572 1 1 0 681.2982734045634 665.7301154436652 669.8248634560714 0 0 0
104 1 1 0 679.9559788569419 657.8263103351075 649.2684577363484 0 0 0
105 1 1 0 679.4650324371243 656.4851431054682 649.305416254592 0 0 0
106 1 1 0 669.2385347118721 649.5363346723025 663.4356437691495 0 0 0
107 1 1 0 679.1538831870648 653.4015907503388 651.3127506097865 0 0 0
108 1 1 0 677.3654564138799 645.8633688641139 670.0302431225155 0 0 0
109 1 1 0 674.5414035275118 650.2299279270954 665.4420955144917 0 0 0
110 1 1 0 668.556360413697 647.7874041338646 660.5335807234239 0 0 0
111 1 1 0 659.5384796060009 645.076367896666 671.1977762810267 0 0 0
112 1 1 0 643.3381452774069 659.9718144524081 651.2503032509975 0 0 0
113 1 1 0 679.8727922045691 649.9014783730067 669.8677086351977 0 0 0
7616 1 1 0 681.9843737753195 662.165095478882 670.9708800610601 0 0 0
1430 1 1 0 661.7066910077377 682.177952319352 662.0704655462164 0 0 0
1680 1 1 0 667.5911699081098 675.9221098095196 643.6802962309872 0 0 1
117 1 1 0 668.1664593695356 648.1424567800245 661.7682111671858 0 0 0
118 1 1 0 653.8144070509958 681.6390382888497 648.9763081727601 0 0 0
119 1 1 0 673.5372149278106 680.2178287676708 660.968790477939 0 0 0
120 1 1 0 681.398867770806 655.624817608693 650.3982558452094 0 0 0
121 1 1 0 670.7632315244595 644.5244975558824 661.5112166112649 0 0 0
3104 1 1 0 662.3307553731768 643.1016721866163 643.7346794230892 0 1 0
698 1 1 0 664.131283551466 681.6584338577724 662.8976069601962 0 0 0
2714 1 1 0 657.5173522921034 665.120329389451 681.4967372155854 0 0 0
872 1 1 0 660.4150248538856 682.3185066582239 662.5680466347168 0 0 0
126 1 1 0 671.916339566613 645.6728213413468 665.0285795030231 0 0 0
186 1 1 0 673.171298784311 643.0651775854406 676.6337043939786 0 0 0
128 1 1 0 678.6249693280365 664.7807093672886 649.8524045278126 0 0 0
129 1 1 0 678.8926119004306 664.2888993939937 647.5440732187648 0 0 0
130 1 1 0 677.9875550801985 664.6562207181819 648.5250542131625 0 0 0
131 1 1 0 675.4660103747549 644.6547044192407 680.0157704010214 0 0 0
132 1 1 0 643.7702001252694 646.77765400777 674.7765532266022 0 0 0
133 1 1 0 652.8509464390332 647.4524704828222 680.3410730205643 0 0 0
134 1 1 0 680.2139551045065 664.8269296507364 647.465050502223 0 0 0
135 1 1 0 672.3206764925162 673.5243374697121 680.4787625856997 0 0 0
136 1 1 0 669.6284534032301 645.1712576453033 666.5063256707389 0 0 0
4373 1 1 0 664.2749415357931 644.0402240104548 644.7642895727945 0 1 0
138 1 1 0 643.7037042788977 678.77562934105 645.9546122974821 0 0 0
2572 1 1 0 653.6833557454042 663.5209169090841 682.3839507072206 0 0 0
140 1 1 0 680.790669908416 680.7567904101088 680.7077503865846 0 0 0
141 1 1 0 665.8863914397265 678.9400523136619 647.0358204824395 0 0 0
1558 1 1 0 681.9320832801214 673.4133915935361 655.4983064359413 0 0 0
143 1 1 0 665.8215349411109 680.3126792485107 647.5265798579953 0 0 0
144 1 1 0 675.1097503593941 650.5069252078881 667.8266629364466 0 0 0
1566 1 1 0 652.3461071800781 666.7582361317094 681.3686840578775 0 0 0
146 1 1 0 674.7484656246899 643.7261031841027 677.7493256484489 0 0 0
147 1 1 0 647.9380145612719 678.505368837156 644.6888780980915 0 0 0
6359 1 1 0 681.0759377444653 659.8488635953316 671.2425976378867 0 0 0
1515 1 1 0 658.5319713984741 644.4811707669292 659.6189586035957 0 0 0
150 1 1 0 673.3228106280916 649.4997140597744 669.1801294450864 0 0 0
151 1 1 0 646.088421961315 649.0188563385424 681.1095634417965 0 0 0
152 1 1 0 644.1853720880895 656.8930656205029 660.5516361889194 0 0 0
153 1 1 0 668.9287503654077 678.9129666482396 645.2075724711755 0 0 0
154 1 1 0 669.5757438752779 647.6401881172553 666.4767022831853 0 0 0
1541 1 1 0 644.5846111715034 679.7395953491184 670.472766218867 0 0 0
156 1 1 0 646.6920746313912 679.1929520976389 647.4605541821622 0 0 0
157 1 1 0 650.9242519776919 647.4333075581753 678.4999583207021 0 0 0
158 1 1 0 648.5552162053241 680.6856633789675 647.0610305652484 0 0 0
159 1 1 0 675.5942198008689 647.6970274360962 665.837057869512 0 0 0
160 1 1 0 652.8966860752845 646.1352681644257 675.7212874559817 0 0 0
161 1 1 0 673.0622933406937 644.4921592867095 679.0006657522358 0 0 0
162 1 1 0 663.6127020915856 671.0559839242579 646.7958220801817 0 0 0
163 1 1 0 664.0184081281683 671.3063141086134 648.1527760435891 0 0 0
164 1 1 0 664.3111757698414 669.091214612585 648.7535671005979 0 0 0
165 1 1 0 665.2124292653816 667.1099375381027 650.4882687846434 0 0 0
166 1 1 0 666.6888952665824 674.879072376511 643.9892530578965 0 0 0
167 1 1 0 674.0631024397559 644.089322562854 648.6124573197129 0 0 0
168 1 1 0 673.202862100503 681.793547882706 671.031988186619 0 0 0
169 1 1 0 677.7621231415286 649.8543044649307 670.967186893378 0 0 0
170 1 1 0 681.2949478032214 658.01430532693 649.7519020571714 0 0 0
2874 1 1 0 671.0876024588376 681.1633567680319 643.3925758326175 0 0 1
172 1 1 0 658.9107969654099 645.8395094467191 662.1083031018096 0 0 0
173 1 1 0 680.0368911103741 681.5497240468961 681.5190740343628 0 0 0
174 1 1 0 672.3712009105262 648.4608030528403 668.858690101152 0 0 0
175 1 1 0 665.888405602404 643.9271330164393 662.8989701379722 0 0 0
176 1 1 0 653.142510648365 664.593636965521 652.6925349030287 0 0 0
177 1 1 0 654.5056295968797 664.5406702900653 652.2445516695905 0 0 0
178 1 1 0 657.1655521768608 664.7967617742113 650.9727248489428 0 0 0
179 1 1 0 658.1043821388333 664.9747970064965 649.8137548470061 0 0 0
180 1 1 0 657.9207161082534 665.6487120899867 648.6127194522145 0 0 0
181 1 1 0 659.2034226611886 664.9023668302187 646.3533053399973 0 0 0
182 1 1 0 660.1215399507173 665.0677054764841 645.2874600749619 0 0 0
183 1 1 0 645.929407357596 677.8518209517225 665.639362089825 0 0 0
184 1 1 0 662.9190684987494 665.699327618262 644.1476407627123 0 0 0
185 1 1 0 649.6989472053293 644.394164084865 675.4885917658663 0 0 0
2686 1 1 0 661.9588028428631 665.9872751649045 643.1141142085883 0 0 1
187 1 1 0 644.0766519968249 656.5642683540198 659.1944019453887 0 0 0
188 1 1 0 645.2449890662057 657.7763399061973 654.4651219752681 0 0 0
189 1 1 0 660.404286468079 645.1743078262823 667.2598646200393 0 0 0
190 1 1 0 677.8132077686578 680.1601216218611 662.6490692239447 0 0 0
191 1 1 0 646.8908494825614 644.2782700538759 644.5728224531173 0 0 0
192 1 1 0 645.9118350060206 660.6417061636844 661.4792332294805 0 0 0
4442 1 1 0 657.4044887992608 643.0128697031453 655.3386866128743 0 1 0
194 1 1 0 643.8685481059573 678.3058139126649 648.8103916952421 0 0 0
195 1 1 0 648.6656747165996 675.7531565789116 669.313886257319 0 0 0
196 1 1 0 681.3130308435752 661.6429757570015 649.9167784532349 0 0 0
197 1 1 0 644.851796429418 648.7315857911248 680.4971418001566 0 0 0
198 1 1 0 644.3566151932708 677.2370957382791 647.9816716194605 0 0 0
199 1 1 0 681.7478864652618 653.2004322072527 651.2211128210487 0 0 0
200 1 1 0 669.8433331976414 645.3247661756357 668.0284441988899 0 0 0
201 1 1 0 656.4733561749408 651.1318213921372 667.8885381012201 0 0 0
202 1 1 0 643.5076883433431 676.0800124779383 647.9577678376003 0 0 0
203 1 1 0 651.9191382173656 666.276075876727 648.7527042575073 0 0 0
204 1 1 0 652.7076426010273 666.2462413407662 649.955227790046 0 0 0
205 1 1 0 651.7292038761783 665.7175110559348 651.0155481117965 0 0 0
206 1 1 0 651.9478363974592 665.1586730797844 652.2665409742148 0 0 0
207 1 1 0 650.5170261109254 666.342867188693 649.0451528981874 0 0 0
208 1 1 0 649.26017767469 666.3556267528015 648.3533701629058 0 0 0
209 1 1 0 647.98303346469 666.7739174707174 648.7790331616609 0 0 0
210 1 1 0 650.4337265911572 666.161349395669 650.4952370260161 0 0 0
211 1 1 0 649.6664089206203 667.3123707990043 651.2650624318396 0 0 0
212 1 1 0 653.1780319735676 667.1600584913965 652.956909916251 0 0 0
213 1 1 0 651.0118149047516 667.7162442083022 651.9358096863602 0 0 0
214 1 1 0 654.1256282993875 666.7866742367056 651.9247859254544 0 0 0
215 1 1 0 653.6820109439536 667.283566452337 650.5355872652698 0 0 0
216 1 1 0 647.9812967548983 668.0639734752639 649.3673464624959 0 0 0
217 1 1 0 648.926090443778 668.2843066915262 650.3661317735797 0 0 0
218 1 1 0 651.6650882200463 668.6226354310344 651.1502379756387 0 0 0
219 1 1 0 652.956647156742 668.621665714011 650.7337888556613 0 0 0
220 1 1 0 647.1221642759435 669.06151918511 648.8265725155499 0 0 0
221 1 1 0 649.5481252113253 669.5401807937685 650.3042322144119 0 0 0
222 1 1 0 650.8865420702251 669.7454505971793 650.6864532275828 0 0 0
223 1 1 0 653.5643379849859 669.8603984604093 650.643930480756 0 0 0
224 1 1 0 647.6131446360698 670.3846071493147 649.0041101421208 0 0 0
225 1 1 0 647.0180660479175 671.4590157468703 648.314863600377 0 0 0
226 1 1 0 648.8645691406944 670.5993330190927 649.7062816087458 0 0 0
227 1 1 0 649.5039252074812 671.7930633995696 649.5247213346186 0 0 0
228 1 1 0 651.5059881009505 670.9646123968245 650.4833347361117 0 0 0
229 1 1 0 650.7335455545889 672.0210844607815 650.0875819688688 0 0 0
230 1 1 0 652.8442941484681 671.0730161986515 650.7056416455164 0 0 0
231 1 1 0 653.4565261180388 672.2953795255903 650.7914405446754 0 0 0
232 1 1 0 647.7635840029741 672.6274189737021 648.0476114408573 0 0 0
233 1 1 0 647.3474513286985 673.4972790431226 647.0456780842402 0 0 0
234 1 1 0 648.8804072779428 672.8203483470147 648.7665331034418 0 0 0
235 1 1 0 649.6626740032186 673.9497491133036 648.5923653719129 0 0 0
236 1 1 0 651.3691323359002 673.230268842576 650.1137003970118 0 0 0
237 1 1 0 650.7354718055551 674.2374549510281 649.4155435380267 0 0 0
238 1 1 0 652.6615776355357 673.4171756609902 650.4968620883346 0 0 0
239 1 1 0 648.1965349143846 674.680032809276 646.8003471406197 0 0 0
240 1 1 0 647.8426085531124 675.9285290711275 646.1026909015974 0 0 0
241 1 1 0 649.2066594418538 674.9149087449663 647.7484219015084 0 0 0
242 1 1 0 649.482835099509 676.2365523015958 648.1415256652359 0 0 0
243 1 1 0 651.2920357757719 675.5001127481288 649.4195100061262 0 0 0
244 1 1 0 650.6816502221218 676.5253853976836 648.7359030564234 0 0 0
245 1 1 0 652.6501135101549 675.7275926016481 649.7828702926245 0 0 0
246 1 1 0 647.628280205119 677.0091173222556 646.9891065828596 0 0 0
247 1 1 0 649.9131451429349 680.9520692131948 647.2795761522214 0 0 0
248 1 1 0 648.6272540071221 677.2351145332451 647.8730978452862 0 0 0
249 1 1 0 645.3161885890572 674.3900879376612 644.3246168532172 0 0 0
250 1 1 0 651.1843090349105 677.7526295219577 648.5245980635982 0 0 0
251 1 1 0 647.0907036550652 678.2573006887936 666.3689737809518 0 0 0
252 1 1 0 650.7420858314788 657.9959659185754 659.2303251046992 0 0 0
253 1 1 0 649.4602255940983 657.3206971954849 659.2114713091802 0 0 0
254 1 1 0 658.5842558674791 647.3133106491159 669.7540020311218 0 0 0
347 1 1 0 681.711125575582 646.498481713691 672.0513750782089 0 0 0
256 1 1 0 673.9576554265383 648.4351781352448 671.3140283513574 0 0 0
257 1 1 0 651.343082050868 660.5883294216887 658.1415187088736 0 0 0
930 1 1 0 681.3917183898371 673.8376347708322 663.9658177453239 0 0 0
259 1 1 0 647.1714232200857 657.1204841622416 660.2809001426007 0 0 0
260 1 1 0 651.7528410097373 658.1383081217584 658.2651949558565 0 0 0
261 1 1 0 658.6976211287101 665.8516164695192 647.3108417988942 0 0 0
262 1 1 0 655.0081113545724 665.7533791899884 651.7898516118472 0 0 0
263 1 1 0 656.0319932931122 665.6593050761524 650.8721494885823 0 0 0
264 1 1 0 660.2714832039343 666.4740049638626 644.82789727784 0 0 0
1330 1 1 0 673.446450141476 681.5387397798618 661.8070925254021 0 0 0
266 1 1 0 663.6314119233493 666.780133516749 644.8001981101531 0 0 0
267 1 1 0 655.9318474529567 666.524706611978 649.7359570840139 0 0 0
268 1 1 0 656.9730328490502 666.6786355299188 648.7721080735038 0 0 0
269 1 1 0 659.0331318211544 667.2003607097752 646.8671120897168 0 0 0
270 1 1 0 659.8009550493105 667.4939966634545 645.7115082335652 0 0 0
271 1 1 0 661.8303895722331 668.136422174714 644.0498864606817 0 0 0
272 1 1 0 653.329321497811 674.6612178453245 650.3146992561009 0 0 0
273 1 1 0 652.5272783256798 677.9062211080677 648.6185469533293 0 0 0
274 1 1 0 655.0392621126642 667.5671409789795 649.8646126679654 0 0 0
275 1 1 0 657.3840286466808 667.9777461185824 648.4946459314691 0 0 0
276 1 1 0 658.454412480985 668.2027944486567 647.6202880641795 0 0 0
277 1 1 0 660.172268453919 668.8373974114703 645.5593646917457 0 0 0
278 1 1 0 661.0720691733131 669.2405630182232 644.4966795595122 0 0 0
279 1 1 0 663.256992404195 668.1033050621186 644.3892777204776 0 0 0
280 1 1 0 663.7179341238011 669.3575628342197 644.8978028020284 0 0 0
281 1 1 0 655.4844603270982 668.8864484103948 649.6770943930209 0 0 0
282 1 1 0 656.7956011997123 669.013930385002 649.1999423382973 0 0 0
283 1 1 0 658.9708573718116 669.5054304812755 647.506737705852 0 0 0
284 1 1 0 659.9121467099286 669.7891710498614 646.5331383634043 0 0 0
285 1 1 0 661.7590042104947 670.524610770744 644.5566396259492 0 0 0
286 1 1 0 663.1250957495585 670.497736222167 644.1484962562605 0 0 0
287 1 1 0 654.8860113082249 669.9607151592121 650.2455982447254 0 0 0
288 1 1 0 657.4669104888864 670.2818215387548 649.2125834514158 0 0 0
289 1 1 0 658.591089313624 670.5076338041993 648.4293028582529 0 0 0
290 1 1 0 660.6062204915902 671.0175686135525 646.6169629854367 0 0 0
291 1 1 0 661.5796833259637 671.334720780209 645.6498174083881 0 0 0
292 1 1 0 663.7633622703981 671.724530919728 643.8395078350298 0 0 0
293 1 1 0 655.5464118566854 671.2190482726188 650.4102774604089 0 0 0
294 1 1 0 654.8419474636347 672.3689343953776 650.77462457207 0 0 0
295 1 1 0 656.8676904257559 671.3381726685337 649.9426172339433 0 0 0
296 1 1 0 657.488654846274 672.6159896312423 649.8078758680772 0 0 0
297 1 1 0 659.2486698586376 671.707819177098 648.4629418578202 0 0 0
298 1 1 0 658.7470328700117 672.7867667571151 649.215464413807 0 0 0
299 1 1 0 660.3498193346514 671.9125707254477 647.6310929073385 0 0 0
300 1 1 0 661.1144352737721 673.1325754780388 647.7340567819135 0 0 0
301 1 1 0 662.7921660501115 672.1359600968443 646.1614272917717 0 0 0
302 1 1 0 662.2958073114773 673.290118249312 647.0727045328232 0 0 0
303 1 1 0 663.5947955470347 672.6851287051599 644.9524527994374 0 0 0
304 1 1 0 664.5819719701841 674.008935979813 645.0918569256073 0 0 0
305 1 1 0 655.4462278873727 673.6507912227139 650.6674659137271 0 0 0
306 1 1 0 654.6856927842995 674.8245161143496 650.4806987732101 0 0 0
307 1 1 0 656.804151399327 673.7211488493323 650.2667034230918 0 0 0
308 1 1 0 657.4655584869664 675.0209209278296 650.3563652859386 0 0 0
309 1 1 0 659.4376708193682 674.0113808752251 649.2915409889462 0 0 0
310 1 1 0 658.7876804075476 675.0975559062838 649.9452054553416 0 0 0
311 1 1 0 660.6254975370995 674.132323154774 648.5720770836656 0 0 0
312 1 1 0 661.1578214807613 675.4304524065461 648.4913909573412 0 0 0
313 1 1 0 662.9214197611145 674.5931216959362 647.0754343909018 0 0 0
314 1 1 0 662.305843665161 675.6594871275768 647.7466726529975 0 0 0
315 1 1 0 663.9832482165651 674.8805849080564 646.2269884998012 0 0 0
316 1 1 0 664.6380163318616 676.0928149015526 646.4493391687383 0 0 0
317 1 1 0 653.2407486654907 676.919293210948 649.2760630856998 0 0 0
318 1 1 0 655.3094271338423 676.0513446134905 650.2386528033925 0 0 0
319 1 1 0 654.5921815205509 677.0538985328841 649.4842540848117 0 0 0
320 1 1 0 656.6665616557307 676.1613149001655 650.3701760965231 0 0 0
321 1 1 0 657.2534523579255 677.4041286308245 650.1655186560097 0 0 0
322 1 1 0 659.3755773852779 676.3758372632772 649.8814150098293 0 0 0
323 1 1 0 658.6570582309831 677.5544403840844 650.208455887555 0 0 0
324 1 1 0 660.580350238384 676.5432166642672 649.1609800219475 0 0 0
325 1 1 0 661.0535425851664 677.8364828229371 649.005571335952 0 0 0
326 1 1 0 662.7896855639731 676.9494653443004 647.6012005152791 0 0 0
327 1 1 0 662.0568057406451 678.035963332064 648.0600304247749 0 0 0
328 1 1 0 664.0251003414925 677.1763608030952 646.9906212161599 0 0 0
329 1 1 0 664.5940246606466 678.4551399159255 646.9720448854301 0 0 0
330 1 1 0 646.451368792808 647.7160471988569 677.2074757747478 0 0 0
331 1 1 0 655.2045751600207 678.274319245526 649.2472632694636 0 0 0
332 1 1 0 643.9236257164473 674.8320860954072 647.4836356822042 0 0 0
333 1 1 0 656.4350505409022 678.477319588247 649.7878964376611 0 0 0
334 1 1 0 656.8980766070068 679.7480083333282 649.9508595185015 0 0 0
335 1 1 0 659.1914403116202 678.8266538894048 650.094490922481 0 0 0
336 1 1 0 658.2775442181348 679.918810421336 650.2356470215551 0 0 0
337 1 1 0 660.4730966171284 678.9460389001657 649.6307987494697 0 0 0
338 1 1 0 660.9305428437324 680.3995764412398 649.2389486470272 0 0 0
339 1 1 0 662.2911577401982 679.3072873660745 647.5017246151283 0 0 0
340 1 1 0 661.2786456679047 680.2315740768131 647.6725915182914 0 0 0
341 1 1 0 663.6936443305472 679.5457668187028 647.1959878594555 0 0 0
342 1 1 0 644.0221467521974 654.8059409979525 656.2219296640224 0 0 0
343 1 1 0 646.6968852658282 656.4237739670983 659.0269203759196 0 0 0
1550 1 1 0 666.0614713259278 643.0913332465885 666.011425148321 0 0 0
1539 1 1 0 674.7788853688065 644.6564620561479 647.5488332639765 0 0 0
1954 1 1 0 676.4260824789853 681.9275940911929 682.2353652454739 0 0 0
4019 1 1 0 657.0183392549527 643.4520254272367 656.630736211512 0 1 0
348 1 1 0 643.6307308863386 679.5989681905249 648.1040696032582 0 0 0
349 1 1 0 643.80266244391 663.1606602386081 649.3761137354877 0 0 0
350 1 1 0 674.196458743055 644.0216133549757 679.705093558768 0 0 0
7570 1 1 0 644.9315344415678 677.0860611314511 666.3659241576048 1 0 0
352 1 1 0 644.174145222836 654.5244817399333 658.6446108015305 0 0 0
353 1 1 0 676.0001976080557 650.2131693812646 668.9181259015743 0 0 0
354 1 1 0 645.485079097882 660.3768971359536 660.1399532286613 0 0 0
355 1 1 0 645.1763205250072 674.7998177389991 646.9546953198943 0 0 0
356 1 1 0 644.5587999489999 665.3492724346828 648.5115891565871 0 0 0
357 1 1 0 648.4222961169129 644.7532144844013 675.178942057037 0 0 0
358 1 1 0 648.5908315997899 657.5571407987434 660.3660044832999 0 0 0
359 1 1 0 658.00964354319 648.3161732728367 668.8608244030204 0 0 0
1328 1 1 0 677.6431237197022 682.1638682333554 651.8947029399231 0 0 0
361 1 1 0 650.5961063090373 645.3316842478605 675.8480969586219 0 0 0
1562 1 1 0 653.6392092791338 643.442846908752 675.8481572202724 0 0 0
363 1 1 0 647.2798569853169 648.1793398955575 679.2575476753672 0 0 0
364 1 1 0 648.6135227120915 657.7270866647592 658.1500875441861 0 0 0
365 1 1 0 643.1952047265012 665.5885728454454 648.1419633014956 0 0 0
366 1 1 0 671.9090874166925 681.0561056961844 669.0950104904346 0 0 0
367 1 1 0 674.1248941093334 679.4874454466344 680.6858053269369 0 0 0
368 1 1 0 656.3086944762068 648.3644827023736 670.5825856226438 0 0 0
369 1 1 0 658.9072224409131 647.1816914533632 666.9358389306769 0 0 0
370 1 1 0 673.326333534065 646.3669868256916 652.7024563225359 0 0 0
371 1 1 0 645.589082798473 669.9662924740874 647.1470714561087 0 0 0
372 1 1 0 645.6896151716123 647.0128634327265 676.2690911301664 0 0 0
1313 1 1 0 645.7521143144639 643.56729946104 673.0090370159376 0 0 0
374 1 1 0 651.139776541571 647.2794235048672 677.1091063244269 0 0 0
35 1 1 0 681.5908267692816 674.7897601215072 655.3699044999349 0 0 0
376 1 1 0 679.9112666646149 647.4749178109377 669.8318626247608 0 0 0
377 1 1 0 679.0946175154656 654.5074717022361 650.4449724676512 0 0 0
378 1 1 0 673.1914271745734 647.4346009791091 663.0952032577786 0 0 0
379 1 1 0 679.3034585528508 679.2819262366936 655.5754492921275 0 0 0
380 1 1 0 647.9549469105159 681.1439063599175 645.8904054823623 0 0 0
381 1 1 0 646.6683018951312 680.4536733353135 645.623432588166 0 0 0
382 1 1 0 680.9310060487904 647.89790293577 672.1799805367344 0 0 0
938 1 1 0 642.8694074359368 657.4535797084876 657.1384553341425 0 0 0
384 1 1 0 670.5255908928957 680.3556300167463 645.9626502507557 0 0 0
385 1 1 0 654.7676573558687 680.5876568707408 649.1117531087696 0 0 0
386 1 1 0 658.7362887242095 681.2490305294732 650.3126153521462 0 0 0
387 1 1 0 679.8741320321441 644.2696105848682 673.7207714826102 0 0 0
2030 1 1 0 656.0229403278249 663.3844134779401 682.2119408437553 0 0 0
389 1 1 0 680.8991857000929 678.5107173226521 652.3608322574925 0 0 0
1521 1 1 0 662.2050725262604 666.0030557726849 681.3039563904945 0 0 0
391 1 1 0 680.0004434334645 679.0693048810166 653.2579640110938 0 0 0
392 1 1 0 679.5791741715368 678.3276193082717 662.0759952574967 0 0 0
393 1 1 0 680.0073443571615 677.5120326524396 660.9664117510941 0 0 0
137 1 1 0 650.9303153783236 649.872476777527 682.1124692569415 0 0 0
395 1 1 0 680.8220797946507 680.6155762296022 651.1251519987259 0 0 0
396 1 1 0 679.272754561871 680.2004518837587 652.9186773182494 0 0 0
397 1 1 0 679.7348681682445 681.0122384918631 651.8532832175271 0 0 0
398 1 1 0 647.1520711256786 659.2784653178772 657.1715265497869 0 0 0
1555 1 1 0 656.0305247274582 643.795478320353 675.3349562337125 0 0 0
400 1 1 0 681.3657663273623 681.4689952310109 650.1325726490661 0 0 0
1341 1 1 0 675.8872142577994 643.3000635548073 673.366810561366 0 0 0
402 1 1 0 643.2675843116324 652.5665009446216 653.3546835783142 0 0 0
403 1 1 0 658.5954408150811 645.9335511553464 671.7377911366262 0 0 0
404 1 1 0 669.9185263798488 679.7744471545548 644.8795889215402 0 0 0
1564 1 1 0 662.3226597794895 661.9972094701916 681.7169916832129 0 0 0
406 1 1 0 659.5868240103187 646.386587569557 669.1825904256058 0 0 0
407 1 1 0 672.7037771512786 647.3340742932402 653.6107442457 0 0 0
408 1 1 0 646.0690668898125 675.5746453991064 644.9375806331727 0 0 0
1546 1 1 0 643.0410766065158 652.0186494841332 682.1964661894863 0 0 0
44 1 1 0 649.7987288441129 667.7240081989819 681.2230607450789 0 0 0
411 1 1 0 659.3440436357816 644.3472405361167 656.8762237344922 0 0 0
412 1 1 0 647.4665972089921 656.8447718392703 657.9006450226192 0 0 0
413 1 1 0 645.1416398587953 667.7024296027147 647.9563220845395 0 0 0
414 1 1 0 658.2904928823307 644.604421239875 662.1907008665196 0 0 0
1527 1 1 0 645.3089884451285 676.9379895252928 667.7810519473497 0 0 0
416 1 1 0 644.7364822181329 659.6253575928332 657.6324855259226 0 0 0
4465 1 1 0 658.5110926444769 643.0426218909024 672.498051805951 0 1 0
6436 1 1 0 642.9949346045756 677.9152051019857 670.4640258997385 1 0 0
419 1 1 0 681.0940016886162 647.9533489162582 669.3344786610717 0 0 0
420 1 1 0 647.0894825236861 659.8674474677983 661.7102817429546 0 0 0
421 1 1 0 671.1840398931552 645.2407922223358 666.1140535849672 0 0 0
1493 1 1 0 655.3480073511048 643.9349655058118 673.0086597101276 0 0 0
123 1 1 0 647.6316648138725 643.2747865148849 644.0206041473191 0 0 0
424 1 1 0 680.5005671387468 645.433299810963 672.664026719281 0 0 0
425 1 1 0 677.2146421734283 649.6070071943965 668.5497995743747 0 0 0
7623 1 1 0 642.8231542254834 643.7315680129898 670.7901306867111 1 0 0
427 1 1 0 672.6865583367446 644.0527580579011 675.4854832915318 0 0 0