LAMMPS data file via write_data, version 2 Aug 2023, timestep = 50000, units = metal

21968 atoms
1 atom types

632.4599627708731 735.974037229126 xlo xhi
632.741142324331 736.4018576756599 ylo yhi
632.7907836691913 736.3522163307996 zlo zhi

Masses

1 12.0107

Atoms # full

1 1 1 0 636.0476601258398 646.2102056441411 638.2119584900713 0 0 0
2 1 1 0 632.8753041000741 645.5224177032925 673.824101725371 0 0 0
3 1 1 0 665.0389942524074 655.7749359639423 642.1582741560657 0 0 0
4 1 1 0 662.5809232385534 672.1453827393179 634.2989763237839 0 0 0
5 1 1 0 662.3891203028311 635.747637717608 683.9214950193783 0 0 0
6 1 1 0 635.1503826851847 642.2587726767898 665.4103163352673 0 0 0
7 1 1 0 661.3229869792341 651.9294565229004 679.652154402852 0 0 0
8 1 1 0 683.448373480982 638.9188083453274 660.9848986470721 0 0 0
10781 1 1 0 633.1320210254237 646.8240053069391 645.2299934332915 1 0 0
10 1 1 0 664.3214163876646 656.6461385312632 641.2691885478646 0 0 0
421 1 1 0 632.6985519360636 641.5153411526247 678.4733294728836 0 0 0
12 1 1 0 665.8488221922905 680.8190981433814 638.7825268651884 0 0 0
13 1 1 0 663.4923627415883 666.2282931623074 633.4578223228508 0 0 0
14 1 1 0 652.2846646515661 681.4257499632129 657.0822415321171 0 0 0
15 1 1 0 637.4372866427743 638.0397878882638 638.2903446295238 0 0 0
1180 1 1 0 665.7886625816413 684.3712401135789 641.6904595613111 0 0 0
17 1 1 0 636.0524668011071 637.1969773540662 641.7770749603045 0 0 0
18 1 1 0 671.0643027816121 654.076952953049 634.3967724053534 0 0 0
19 1 1 0 633.7276280062435 639.4204727086064 637.0129727722947 0 0 0
671 1 1 0 666.6939750191988 684.2394877407963 680.5810182012318 0 0 0
2705 1 1 0 647.7161852769412 634.1210864992333 633.1818641556968 0 0 1
22 1 1 0 659.0246291990695 635.1386329986325 651.2412902932768 0 0 0
23 1 1 0 663.231677576804 638.078807180744 684.0132287260759 0 0 0
3257 1 1 0 633.6004653380578 657.2509974572947 684.2528999483645 0 0 0
25 1 1 0 661.4308348059113 639.171141111953 654.2307206180573 0 0 0
8242 1 1 0 667.7682274774822 684.4714400031528 677.3504659700144 0 0 0
27 1 1 0 637.6884736004582 636.9300309178698 636.1530571763554 0 0 0
28 1 1 0 668.1752855355487 675.3422525572771 637.3354162135851 0 0 0
29 1 1 0 638.1592687855889 635.7342652509255 635.6422871330361 0 0 0
197 1 1 0 683.7646387643578 675.4750603420292 669.7839703159714 0 0 0
31 1 1 0 683.1818191941511 674.5201552944767 666.9053780221144 0 0 0
672 1 1 0 683.6880159970535 683.490212623028 640.8504695496545 0 0 0
33 1 1 0 636.3863296933604 666.1750914593174 657.0657884394601 0 0 0
2698 1 1 0 636.3442114275672 632.7879259828974 633.4771241729218 0 0 1
35 1 1 0 638.3024466362189 637.4095622144873 637.3531304847427 0 0 0
36 1 1 0 639.6240956347633 635.4039491537909 635.5776752328062 0 0 0
37 1 1 0 639.8650756179088 634.0173701390618 636.2436260633528 0 0 0
38 1 1 0 665.0701303220098 657.1865391270812 640.2246875581059 0 0 0
39 1 1 0 637.7086559625558 665.9155229376889 654.6337598412092 0 0 0
40 1 1 0 636.5365368686562 641.6857937637907 669.3108930428845 0 0 0
41 1 1 0 663.1899857010782 680.4318720240542 638.4992416203072 0 0 0
42 1 1 0 668.071449700507 680.1452627166866 638.4574871320932 0 0 0
43 1 1 0 666.492313844635 655.5030918099403 642.1829377883132 0 0 0
44 1 1 0 667.2416302801487 654.4391504137798 642.8129555773115 0 0 0
45 1 1 0 634.7977712568721 649.2269735336768 638.7568257921462 0 0 0
46 1 1 0 667.6519450259445 678.7157547349777 639.0636683093338 0 0 0
47 1 1 0 638.2100785951924 636.4109787558474 640.1516526241076 0 0 0
48 1 1 0 638.2516896720525 634.8160663369439 638.8658568700399 0 0 0
49 1 1 0 635.9675733676723 633.5130316562315 641.5878901579184 0 0 0
50 1 1 0 662.1049833529372 676.1241526504947 666.4551895010131 0 0 0
1406 1 1 0 667.9527015905966 684.1082960831191 679.6831186881699 0 0 0
376 1 1 0 632.6841589440945 650.0136332100226 633.1092783374542 0 0 0
53 1 1 0 638.7956511810384 633.810083999649 639.8230237488484 0 0 0
54 1 1 0 680.8173999156638 681.8840525023695 635.0125455522584 0 0 0
55 1 1 0 636.310359469622 637.1912841163303 635.8692764094736 0 0 0
56 1 1 0 635.7708811913095 649.6427012889834 639.6390449709055 0 0 0
57 1 1 0 637.6385477809996 642.6693734013618 669.5172788504995 0 0 0
58 1 1 0 661.5594993130148 654.2086324475102 682.6482021048809 0 0 0
59 1 1 0 636.7970476745494 645.9789197644562 671.1576950810539 0 0 0
60 1 1 0 665.7607085257893 674.749791500321 638.4528172054329 0 0 0
61 1 1 0 635.9571903412195 663.6437092001686 650.5337526677276 0 0 0
62 1 1 0 661.5087227357135 671.2644384039103 634.0166130466332 0 0 0
63 1 1 0 665.8010990456644 670.3103324355151 636.1479266178864 0 0 0
64 1 1 0 667.3049666399846 673.6089084852003 635.7682887505434 0 0 0
1082 1 1 0 684.0532123654535 675.5099782834211 664.4751833522394 0 0 0
66 1 1 0 635.0672282755193 651.615053822265 640.7059305220439 0 0 0
67 1 1 0 639.4553611357752 636.7204034306477 637.6793591508426 0 0 0
68 1 1 0 640.3774300286335 636.0259513937266 636.8060481654052 0 0 0
69 1 1 0 641.1187060849262 633.5907793279741 636.5324606309368 0 0 0
70 1 1 0 657.1184868458361 682.3272119840263 657.2550417173412 0 0 0
71 1 1 0 666.8905632588048 682.7572218269355 673.777858043889 0 0 0
72 1 1 0 639.2992324044359 636.0125683440837 638.938874603342 0 0 0
73 1 1 0 640.5744716971664 635.3723444944475 639.4208841634711 0 0 0
74 1 1 0 641.6153324233279 635.5039374631195 637.2142185926463 0 0 0
75 1 1 0 641.7712540821872 635.282129997085 638.6741920169889 0 0 0
76 1 1 0 642.4489404999888 634.3992902930013 636.2864468222206 0 0 0
77 1 1 0 643.5061985775959 633.5611374866323 637.1425912079851 0 0 0
78 1 1 0 659.8146181463885 682.8996004669505 669.5939686876311 0 0 0
79 1 1 0 660.3087859350853 653.9105678507489 683.2123784518525 0 0 0
80 1 1 0 668.8419415984469 678.1494539922143 636.9106472174868 0 0 0
81 1 1 0 640.2253080341904 634.2010916511397 639.9715720069064 0 0 0
5824 1 1 0 656.6188275703237 633.6607481398081 648.1334933895952 0 1 0
83 1 1 0 642.7383419589828 634.4000581004302 639.2401823469074 0 0 0
84 1 1 0 663.0122525133471 662.581605743167 633.6090383975271 0 0 0
85 1 1 0 643.8487152347451 633.8377288106655 638.4989623518687 0 0 0
387 1 1 0 664.2886932970176 638.9141779036961 684.3884269993915 0 0 0
87 1 1 0 634.2484394772863 652.9450076560538 644.5116443137034 0 0 0
88 1 1 0 664.4919057304497 672.2682840233518 637.7388276870095 0 0 0
89 1 1 0 665.569198897148 677.1871525615579 638.6688494616191 0 0 0
90 1 1 0 659.8795463225522 682.6168721617878 666.2112479346217 0 0 0
91 1 1 0 664.5062086250997 674.7635969514088 637.7532385766544 0 0 0
5449 1 1 0 678.1295143695121 679.3237694684639 633.4090477403192 0 0 1
93 1 1 0 643.9189835997602 673.7672698536547 658.2886943301102 0 0 0
11120 1 1 0 632.5180798558004 637.7705947138693 639.5166023019749 1 0 0
95 1 1 0 637.953874203657 640.5621686237146 634.3952848352749 0 0 0
96 1 1 0 683.402409262989 637.4745853869573 660.6880015670292 0 0 0
1178 1 1 0 672.0523869361302 683.8703947971812 642.3538630913303 0 0 0
98 1 1 0 660.2355397797837 657.5496619915995 634.2457624161603 0 0 0
99 1 1 0 676.9554281155414 648.6268221866789 638.6372192071007 0 0 0
100 1 1 0 634.3708922830932 649.2410310831714 645.0052910612297 0 0 0
101 1 1 0 633.7528623450764 645.1127151156338 669.5650646702129 0 0 0
102 1 1 0 664.1697704918395 634.1701141557598 682.4016628509999 0 0 0
103 1 1 0 636.9405598025622 642.4949702308536 672.3559581721355 0 0 0
104 1 1 0 682.080497098702 640.9595887035977 660.8563676251183 0 0 0
105 1 1 0 651.4255049377755 674.6436147519441 659.2854386357402 0 0 0
106 1 1 0 637.2495101275911 669.8924857338171 654.9610268547245 0 0 0
107 1 1 0 634.3899073886056 644.4183835029752 682.1165844319423 0 0 0
108 1 1 0 641.5165031838428 683.0537700221737 649.5483442171538 0 0 0
109 1 1 0 656.2220187592453 682.0188157115319 656.1794056078485 0 0 0
110 1 1 0 635.9892232100567 641.2592953006297 668.0645447343616 0 0 0
111 1 1 0 637.3818751350022 644.8897393746082 670.4726415970565 0 0 0
112 1 1 0 666.3867544188851 676.045164114735 638.7473517957404 0 0 0
673 1 1 0 637.2469496564612 633.1481474138942 641.5998747636532 0 0 0
114 1 1 0 635.7453546056747 651.7179057316106 638.4180764080326 0 0 0
115 1 1 0 635.8181192287058 643.7400108506376 665.1482655570517 0 0 0
116 1 1 0 664.0266940924764 677.0359836068245 634.973613377462 0 0 0
117 1 1 0 664.4795964223407 673.6432756242983 633.8506693709955 0 0 0
118 1 1 0 647.6256178573583 674.1387696609781 661.6654390047468 0 0 0
511 1 1 0 669.0155072505979 632.8560469638243 661.6808964742022 0 0 0
120 1 1 0 633.4624128848083 644.6829646293754 640.2374152688117 0 0 0
121 1 1 0 635.6328259359966 655.5083902432697 635.4939764526489 0 0 0
122 1 1 0 636.6624586038545 643.0781169080483 673.6802618487608 0 0 0
123 1 1 0 682.0261169989931 643.6675139646459 661.2500641983719 0 0 0
124 1 1 0 664.3027740106297 675.9290425769553 636.9701065754828 0 0 0
125 1 1 0 661.6711399937707 667.9148301101262 635.950393827873 0 0 0
126 1 1 0 634.5652701435056 646.433773473344 641.0481602238699 0 0 0
127 1 1 0 633.6315626614675 650.5920172053723 644.832648659128 0 0 0
128 1 1 0 679.2091986049601 677.0736022216532 651.6173653596554 0 0 0
129 1 1 0 654.3132131594567 681.5667034669017 660.1577321667621 0 0 0
130 1 1 0 646.2794771242499 673.9743616198607 661.2218413387782 0 0 0
131 1 1 0 665.4038767200304 668.5877261442569 634.1181719853888 0 0 0
132 1 1 0 637.6113390041626 643.3553714189457 671.0836990776612 0 0 0
133 1 1 0 681.2822174685883 634.5675304934588 659.9694476437064 0 0 0
134 1 1 0 668.0725602929917 652.0560406283472 637.2539099248706 0 0 0
135 1 1 0 679.5958343043608 676.6745992154387 652.9175929267041 0 0 0
136 1 1 0 668.2503856510186 655.7263384627528 639.1503343265961 0 0 0
137 1 1 0 634.9831172803002 645.8577905651225 669.6086102802664 0 0 0
138 1 1 0 649.4121012693184 672.6387272341158 662.4239552448623 0 0 0
139 1 1 0 663.5884241125113 635.3311896090596 655.116946003145 0 0 0
140 1 1 0 637.109880233457 666.5095469104986 652.3267251075365 0 0 0
141 1 1 0 639.7925516125745 669.5398195337087 654.9970938987017 0 0 0
142 1 1 0 665.8155050610059 669.9295588836728 634.8028984581391 0 0 0
143 1 1 0 635.5830669542252 636.137097664773 635.3181728401718 0 0 0
144 1 1 0 680.8356125175679 642.9845110167014 660.9560022762237 0 0 0
2405 1 1 0 633.3711159127051 663.2853476292933 633.4820413209138 0 0 0
146 1 1 0 659.7731613415152 635.7979736645523 652.2386352438646 0 0 0
147 1 1 0 633.042827909006 641.7912037132413 663.5765066489066 0 0 0
148 1 1 0 664.3221249808252 634.4074650932271 655.8305897901346 0 0 0
149 1 1 0 638.7557123026917 670.5075745974517 655.0745756884862 0 0 0
150 1 1 0 635.0500855095845 648.2797565807113 634.2416003335352 0 0 0
151 1 1 0 680.8101396307469 675.9686960918352 656.9580378791931 0 0 0
152 1 1 0 669.2035370811612 677.1514427336106 636.1023661008285 0 0 0
5604 1 1 0 666.7066217605731 653.481323419304 632.8990351832191 0 0 1
154 1 1 0 636.1061316954929 653.1583060942241 638.3184861378735 0 0 0
8434 1 1 0 664.5955023810952 683.3732698683132 673.1781128814292 0 0 0
156 1 1 0 670.3331170019494 651.9154505179217 640.5870947581878 0 0 0
1226 1 1 0 641.0234208466046 633.2791353028422 640.5450632724552 0 0 0
158 1 1 0 671.5908785009626 652.3768434172276 638.3311399252743 0 0 0
159 1 1 0 633.7437382077004 660.9581325600703 651.3728567766146 0 0 0
2046 1 1 0 668.7513501588328 669.1683734190606 632.9360294845488 0 0 0
161 1 1 0 647.9570784900171 676.8504779080531 657.5535822861387 0 0 0
162 1 1 0 663.8095110557716 633.5433578836447 679.7658020948429 0 0 0
3306 1 1 0 664.6149679627204 671.2392917348758 633.0229893001136 0 0 1
8068 1 1 0 658.1188211489351 632.8688905627571 653.2416763962192 0 1 0
165 1 1 0 660.4139756393531 683.0840588528337 670.8561388945127 0 0 0
166 1 1 0 634.5491193458295 637.4623569405023 681.7368190111234 0 0 0
8436 1 1 0 665.9920213203294 683.4958766712361 673.0081596255332 0 0 0
168 1 1 0 637.7175276076827 666.5919142157765 656.9980022537557 0 0 0
169 1 1 0 637.3946552442761 668.9924555380654 657.4776013881002 0 0 0
170 1 1 0 680.2529182637561 647.247612370055 637.9528937618642 0 0 0
8031 1 1 0 660.5181043772773 683.9627923698931 673.133585736384 0 0 0
172 1 1 0 634.8261114299775 643.01618437976 666.7651133575783 0 0 0
173 1 1 0 633.6974200264382 646.1156776058718 679.1150127203215 0 0 0
97 1 1 0 667.172550801091 683.3656975761518 674.9739579601261 0 0 0
175 1 1 0 637.1479085697545 642.1015241415024 676.183304764749 0 0 0
4608 1 1 0 667.697993144543 653.0380068112848 633.7385313869246 0 0 1
880 1 1 0 670.2566791109508 633.3108288663447 661.2199746262507 0 0 0
178 1 1 0 683.3417520875992 681.300596960288 645.4159767651662 0 0 0
179 1 1 0 633.5804984359954 645.141650699234 678.0897630884176 0 0 0
2065 1 1 0 683.7717241690403 680.2575016725257 633.5429737633523 0 0 0
181 1 1 0 669.348979091101 679.3834231598439 636.5238010175962 0 0 0
1216 1 1 0 670.3096015094408 673.1430311136822 633.0771303666536 0 0 0
183 1 1 0 663.8547895271869 671.1117513882913 637.2203227258171 0 0 0
892 1 1 0 654.1875304588071 684.2096719072518 649.0537725505378 0 0 0
185 1 1 0 676.1990995536829 653.0648425840712 640.0576587684164 0 0 0
6779 1 1 0 658.8577121737775 684.3871469881236 661.8659456725837 0 0 0
187 1 1 0 636.0953519118096 642.3775093722109 667.2230121164685 0 0 0
188 1 1 0 635.9546589288396 643.444834435321 670.707035944987 0 0 0
11136 1 1 0 632.7035825716114 648.6071907379772 646.6348251982859 1 0 0
8228 1 1 0 643.5024874581919 684.3903491937875 649.4514145366314 0 0 0
1731 1 1 0 632.78455406933 652.346625537594 641.9621814758789 0 0 0
192 1 1 0 633.4282188263148 648.5037585760363 681.7447066311836 0 0 0
503 1 1 0 632.942826236754 655.2162554830534 644.0998719951059 0 0 0
194 1 1 0 660.4220171334083 649.9795803623656 683.2923487754074 0 0 0
2375 1 1 0 683.3681956948868 681.3249715258104 649.5494049252706 0 0 0
196 1 1 0 674.7697199111795 649.3931702261688 640.371162284264 0 0 0
8327 1 1 0 644.5956323776297 632.7932803784777 640.6146974772125 0 1 0
198 1 1 0 633.9986648039613 640.421339779604 670.603728567645 0 0 0
199 1 1 0 634.2645671796021 634.9946352790586 642.355577116349 0 0 0
200 1 1 0 664.9062774623187 656.4873193526222 633.8518132741343 0 0 0
201 1 1 0 638.1582096844804 667.8156273755199 657.7207200745399 0 0 0
202 1 1 0 660.9520983162221 636.7343015109428 654.3214883094699 0 0 0
203 1 1 0 666.8476196291075 682.070736028562 680.1155272437518 0 0 0
204 1 1 0 636.5442320890087 644.3727567654718 666.3277283772777 0 0 0
205 1 1 0 666.2646594779256 661.870528339915 634.6408296429112 0 0 0
206 1 1 0 639.6904406343073 667.8292592045542 657.9458880731102 0 0 0
207 1 1 0 660.6178993846238 650.5553960547375 682.0022145283618 0 0 0
208 1 1 0 634.2892368403215 640.4076390485662 666.6303942496978 0 0 0
209 1 1 0 633.4512924343281 647.0454099724736 681.5948363964028 0 0 0
210 1 1 0 638.4115770208111 666.2355865807806 655.8028698875225 0 0 0
10933 1 1 0 632.7385047948312 641.0176228431081 636.0967287569713 1 0 0
8435 1 1 0 645.1482391556465 684.0403214283922 651.2105229267406 0 0 0
213 1 1 0 663.9970529951664 664.73517784391 633.9463486892614 0 0 0
13237 1 1 0 632.7293598178744 667.2078772711676 655.2324953455146 1 0 0
215 1 1 0 681.7357204334089 640.7302391866732 636.8558852432875 0 0 0
216 1 1 0 634.971155019871 669.4352632820339 653.1380777628922 0 0 0
16 1 1 0 668.7473852171361 633.4471159635585 684.1095066461689 0 0 0
191 1 1 0 672.1494903381174 650.7154500241035 683.8671272261455 0 0 0
219 1 1 0 632.9612857208931 672.881035958723 656.2029485429586 0 0 0
220 1 1 0 661.7139711956079 637.852885803155 654.6401864375886 0 0 0
221 1 1 0 659.374596161633 634.616222328188 654.3599584584573 0 0 0
34 1 1 0 632.969728711459 639.860977298674 681.9109109729017 0 0 0
223 1 1 0 633.6809309222232 639.0920006616722 679.7847445248309 0 0 0
224 1 1 0 633.2931127258993 644.5768355343688 668.3586767524088 0 0 0
225 1 1 0 662.6959702796117 634.7584719808161 654.2174356546176 0 0 0
226 1 1 0 669.6396972590087 675.1758166885022 634.2740628632447 0 0 0
227 1 1 0 633.1450834752234 645.2260908597634 676.807972849956 0 0 0
228 1 1 0 661.1106675955785 635.1968235021154 652.450099093534 0 0 0
229 1 1 0 635.6069438561474 640.1676274863727 633.9403125202161 0 0 0
4948 1 1 0 647.2981888680649 632.7489079243079 633.4824387066029 0 0 1
231 1 1 0 633.7784721613626 636.347995517389 642.3424081731547 0 0 0
5675 1 1 0 663.0309351382582 667.7706569124241 633.1584896357831 0 0 1
233 1 1 0 665.4018278719728 679.5837603108969 638.3260011654186 0 0 0
234 1 1 0 679.133489409217 675.4899976409233 653.6137700468421 0 0 0
1108 1 1 0 658.1546530338254 683.9643667738587 659.0747161487253 0 0 0
1383 1 1 0 633.084706291776 653.459445174044 682.8354358954256 0 0 0
632 1 1 0 677.4161787736106 683.777372736914 645.0738036636319 0 0 0
11153 1 1 0 632.7799412495821 639.1068850306676 639.3578258204878 1 0 0
239 1 1 0 669.8488053214822 652.8079046451093 643.0633219489056 0 0 0
240 1 1 0 671.8748991469714 651.2190113215205 642.0356952171983 0 0 0
241 1 1 0 672.8353485739414 652.360170981714 642.3930443863084 0 0 0
242 1 1 0 674.6672992959841 650.4509191897465 642.5445825675545 0 0 0
243 1 1 0 674.2391781353097 651.9408410557828 642.2406419182889 0 0 0
244 1 1 0 676.1483010442244 650.2279304722672 642.59772713778 0 0 0
245 1 1 0 676.866616734261 651.2676223927809 641.6726518092987 0 0 0
246 1 1 0 678.7646335679211 649.7953236705548 640.9548990887348 0 0 0
247 1 1 0 678.0934974540497 650.9868295779363 640.9958669454406 0 0 0
248 1 1 0 645.9170382711602 674.5205744463844 659.9808966546892 0 0 0
249 1 1 0 679.93898840633 650.5017438888215 638.8295626327761 0 0 0
250 1 1 0 634.8016650761537 640.5332881308639 667.9166575736239 0 0 0
251 1 1 0 681.259517399589 650.4642261190486 638.1530719552969 0 0 0
252 1 1 0 671.1499561248983 654.3154469162944 642.1537827855179 0 0 0
253 1 1 0 670.8382145648059 653.9952227487887 643.5204723185974 0 0 0
254 1 1 0 672.6032900137709 653.8211626510649 641.8734740410878 0 0 0
255 1 1 0 673.6716450749906 654.4995555961283 642.9919804821467 0 0 0
256 1 1 0 675.1566328705127 652.9448289245394 642.1553310036336 0 0 0
257 1 1 0 675.0207122177782 654.1539499792739 642.9017918672271 0 0 0
258 1 1 0 676.4067824315965 652.6713674437115 641.4270570570951 0 0 0
259 1 1 0 677.4773114005488 653.5846728784509 641.9259812947679 0 0 0
260 1 1 0 678.468002902882 652.2659229363443 640.1212426147953 0 0 0
261 1 1 0 678.6252744773847 653.2762059763515 641.2965967416193 0 0 0
262 1 1 0 679.8011526037574 651.9425535851977 639.4287056567991 0 0 0
263 1 1 0 680.9306586594006 652.4601625333805 640.0835154946619 0 0 0
264 1 1 0 682.2364862389793 651.4853860370589 638.3007089559463 0 0 0
265 1 1 0 682.188468667994 652.2841269620467 639.4282572432076 0 0 0
266 1 1 0 671.9810070174735 653.6443639312212 644.2716148579517 0 0 0
267 1 1 0 672.2141102932305 652.2725869628188 643.8176284877329 0 0 0
268 1 1 0 673.1711140126446 654.3711954012073 644.2908448420211 0 0 0
269 1 1 0 674.3039676464282 654.1421979699884 645.50618781311 0 0 0
270 1 1 0 676.1476140816253 654.2745024853576 643.8258539712995 0 0 0
271 1 1 0 675.823528583827 653.8201257861358 645.1170274552118 0 0 0
272 1 1 0 677.4405040698329 653.8864504427829 643.3364327928282 0 0 0
273 1 1 0 678.4011482190399 653.1912446599366 644.114516886965 0 0 0
274 1 1 0 679.7587487079369 653.1530171424415 642.0962625850273 0 0 0
275 1 1 0 679.5402080368613 652.7927115114135 643.4621947167122 0 0 0
276 1 1 0 680.9148897998275 652.7223645620016 641.4642267824867 0 0 0
277 1 1 0 681.8872154540923 652.0349384362734 642.1993624887032 0 0 0
278 1 1 0 683.3184929049719 652.2105846394751 640.2430384750543 0 0 0
279 1 1 0 683.0750209592411 651.669649140771 641.5433639708808 0 0 0
280 1 1 0 673.6573070994516 651.9380060994107 644.153276091193 0 0 0
281 1 1 0 673.9798705630911 650.5118474233356 643.8603668759167 0 0 0
282 1 1 0 674.0975240211123 652.6321673645164 645.1939353011717 0 0 0
283 1 1 0 674.4960590087722 651.8052264413141 646.181073690239 0 0 0
284 1 1 0 676.6125299896894 652.8233819548326 645.7494731663227 0 0 0
285 1 1 0 675.8353089884674 651.7770652725804 646.386758935251 0 0 0
286 1 1 0 677.860507183865 652.4190458814724 645.1981795566955 0 0 0
287 1 1 0 678.2249613742148 651.0476180041064 645.2244829448011 0 0 0
288 1 1 0 680.1907798659577 651.5878238217127 643.913501527764 0 0 0
289 1 1 0 679.4317361187855 650.5495571874418 644.5337252515747 0 0 0
290 1 1 0 681.3570147171806 651.1232602621257 643.2312206499714 0 0 0
291 1 1 0 681.6405503477455 649.7338662604346 643.1083077904353 0 0 0
292 1 1 0 683.7239813236803 650.4852632581258 641.9751539074996 0 0 0
293 1 1 0 682.8722243383808 649.4253967292326 642.4211805432038 0 0 0
294 1 1 0 672.8980480109449 650.2054099215266 644.8113054414293 0 0 0
295 1 1 0 671.736320609989 650.9959038183117 644.510844066286 0 0 0
296 1 1 0 673.5176140989564 650.4374687672474 646.1786717787555 0 0 0
297 1 1 0 673.9438681664049 650.1484425838413 647.618419144121 0 0 0
298 1 1 0 676.285227944416 650.3728104128363 646.4799980601299 0 0 0
299 1 1 0 675.2893253096397 650.565218917347 647.8450135216491 0 0 0
300 1 1 0 677.1086017465444 650.1481755275203 645.222402641388 0 0 0
301 1 1 0 676.9910973514739 649.6116544738702 643.9127658174972 0 0 0
302 1 1 0 679.3694748115355 649.3230937035974 643.8028219986227 0 0 0
303 1 1 0 678.1143177500837 648.9948602451205 643.3518701800241 0 0 0
304 1 1 0 680.5272385415456 648.7701471130997 643.2461114452038 0 0 0
305 1 1 0 680.4950077754823 647.6343177163434 642.2119975993708 0 0 0
306 1 1 0 682.7365253482697 648.353678322357 641.5453294660774 0 0 0
307 1 1 0 681.4029000834288 648.1295518034442 641.2152383274348 0 0 0
308 1 1 0 664.0683422473564 674.3988135382939 635.058826708996 0 0 0
14156 1 1 0 632.734107689003 633.6544203343408 633.3305244290227 1 0 1
310 1 1 0 668.549462793588 676.013128487321 636.1771160132239 0 0 0
311 1 1 0 641.4573865048702 668.3121973206969 656.43980469612 0 0 0
312 1 1 0 662.7306342750842 634.4334075198096 679.4180218414033 0 0 0
182 1 1 0 657.3411278179155 683.6608496179325 657.8240902570395 0 0 0
82 1 1 0 634.1715888610329 646.4416988959039 632.799793141512 0 0 0
315 1 1 0 660.5034833142214 634.0335232671042 682.9300142325814 0 0 0
316 1 1 0 637.3532356300741 643.9631903929431 635.1885295782031 0 0 0
1293 1 1 0 683.9705867260157 680.8616466208588 654.7845124523448 0 0 0
318 1 1 0 665.286613188644 642.1482549529044 682.7918758899681 0 0 0
51 1 1 0 636.6544343307015 633.1297650519389 638.1824647331797 0 0 0
320 1 1 0 680.3264254822495 676.0938738580417 655.6408509662757 0 0 0
321 1 1 0 663.8115292921873 658.6662861407159 633.7203470002299 0 0 0
895 1 1 0 633.4556350612379 659.1400438108125 644.7573509820243 0 0 0
323 1 1 0 635.3903961154508 655.0710270839553 639.4010357110913 0 0 0
324 1 1 0 633.6890129313401 656.309961725705 637.7695037649916 0 0 0
325 1 1 0 679.8001850935448 681.3756378681866 633.8442249095175 0 0 0
7848 1 1 0 661.768960667194 683.8212938494432 675.5359925278951 0 0 0
327 1 1 0 683.6703604187816 671.5804653615356 661.9421313807715 0 0 0
780 1 1 0 666.6655389775631 633.1450822459375 660.9845718621618 0 0 0
329 1 1 0 666.7812284841481 635.3383894627937 683.9835795852075 0 0 0
330 1 1 0 675.6576836344634 633.6450505533979 660.044084275552 0 0 0
331 1 1 0 647.7687936744226 674.8333309103874 657.4898301753402 0 0 0
332 1 1 0 683.3714221078639 681.4649284775419 653.6268880083672 0 0 0
333 1 1 0 651.2769171375564 675.1482306876286 657.9898376525185 0 0 0
334 1 1 0 633.8477131369463 644.4358550001805 635.8689012480124 0 0 0
335 1 1 0 677.2501883856986 652.6921292965019 639.210199274411 0 0 0
336 1 1 0 666.7353130680068 677.3982447381643 667.8708346845481 0 0 0
7766 1 1 0 679.2652330437223 633.0531898004166 659.6345084229699 0 1 0
338 1 1 0 681.8984261908573 644.3337615328002 638.9843105816578 0 0 0
7556 1 1 0 683.5175476704092 633.5853757575222 659.2545344157057 0 1 0
5669 1 1 0 654.7190930593707 660.6910366186991 633.7117472158051 0 0 1
341 1 1 0 682.0480977958013 637.182841454213 660.2972705012417 0 0 0
342 1 1 0 666.8127240381111 672.3956290977093 635.4588907919294 0 0 0
2401 1 1 0 664.2853258341884 633.0131096970949 655.6107899441122 0 0 0
4889 1 1 0 663.4927408898113 656.1950086296864 633.6876619378128 0 0 1
345 1 1 0 682.4375684259319 646.5430232429017 637.5044937248499 0 0 0
346 1 1 0 658.3853083379016 682.8049699637369 659.9480808996615 0 0 0
347 1 1 0 652.4579579362955 680.170945730337 659.6503114298758 0 0 0
348 1 1 0 669.1982071456173 651.895339553128 638.1014300914456 0 0 0
349 1 1 0 679.6384823835547 646.6441249565546 641.5438908417891 0 0 0
350 1 1 0 682.3102167446793 643.0863712728429 636.7387615749144 0 0 0
119 1 1 0 632.7507681006341 636.7710769433926 678.7822076261682 0 0 0
352 1 1 0 674.8854731255101 652.9610138793355 639.5754993945359 0 0 0
353 1 1 0 673.7136103774789 654.2178321492543 636.9522913889866 0 0 0
354 1 1 0 640.5278532853343 662.1204827083346 633.4047506664288 0 0 0
355 1 1 0 634.7998055837581 658.6318963162183 636.30534537559 0 0 0
4617 1 1 0 682.5903246354279 638.6656397711932 633.7587130852863 0 0 1
5674 1 1 0 662.7047710251401 657.4797403553112 633.5666692755344 0 0 1
358 1 1 0 644.265365391165 675.6130638878519 656.4948481727149 0 0 0
343 1 1 0 634.1387613241118 650.464286781178 632.9159452308633 0 0 0
360 1 1 0 662.9293056327774 657.0947864812202 641.2631677982179 0 0 0
361 1 1 0 639.4996942990979 667.1444405416817 655.5957454040627 0 0 0
362 1 1 0 666.5743613990187 673.6352953222945 638.0862140070604 0 0 0
363 1 1 0 664.9851213031662 681.2273087465913 640.0072162813117 0 0 0
364 1 1 0 641.9958907988675 676.3046334333987 655.4375155745828 0 0 0
1850 1 1 0 632.6910631555329 640.0903892033034 671.1806919310758 0 0 0
94 1 1 0 684.0977384482271 643.651803309407 662.7007882075741 0 0 0
367 1 1 0 637.202979020825 643.2858898204875 667.1898507709557 0 0 0
368 1 1 0 683.1356190527755 681.4153168965447 641.5088175394923 0 0 0
1093 1 1 0 648.7946024532772 633.3121737441451 636.5687521048651 0 0 0
5497 1 1 0 669.8744005702713 655.8949556225081 633.3820169616425 0 0 1
5677 1 1 0 665.9805787049646 673.3388460961753 633.2780262946045 0 0 1
372 1 1 0 649.9070399448959 674.7061412149541 661.280602502066 0 0 0
373 1 1 0 665.423572364894 656.2513519827886 635.1009215241285 0 0 0
374 1 1 0 646.7119123424841 675.9176126911093 657.8723493845037 0 0 0
375 1 1 0 650.1682772068768 674.7189575511221 657.23673667824 0 0 0
592 1 1 0 635.5187403382646 656.2059176870379 632.930937756993 0 0 0
377 1 1 0 638.2546544586683 659.6128125004284 637.0562697609988 0 0 0
378 1 1 0 634.8713079220877 637.4458943740866 638.8714083827001 0 0 0
379 1 1 0 637.7658584011259 661.9678407580228 636.735295517187 0 0 0
380 1 1 0 636.5878233296088 662.5837260311046 636.1855182362576 0 0 0
381 1 1 0 651.7784835979323 673.3350639449891 661.7165687170152 0 0 0
382 1 1 0 680.1579375614735 676.9713990230158 667.0465579692986 0 0 0
383 1 1 0 682.3517575636841 680.7143490671497 653.021292936037 0 0 0
384 1 1 0 635.2665735217324 661.8124448590464 636.3495311385584 0 0 0
385 1 1 0 634.5481793906151 661.7469064392332 635.045095092998 0 0 0
386 1 1 0 633.7959445538803 673.7256259457515 657.2323673770557 0 0 0
3755 1 1 0 634.1727903975539 635.8281970598262 633.1824213756552 0 0 1
388 1 1 0 634.0542225925157 641.0167197880933 635.6268545650495 0 0 0
389 1 1 0 635.1622737645342 673.6312059731571 656.7891970670022 0 0 0
32 1 1 0 632.627809817364 641.3275024835483 668.5155677167522 0 0 0
5038 1 1 0 635.1093161732717 633.4015591486269 633.1921273545374 0 0 1
5658 1 1 0 679.645705823132 677.2587168905271 633.0541031938461 0 0 1
4616 1 1 0 682.0359464055996 637.3719435469601 633.4752470935703 0 0 1
394 1 1 0 633.903434381826 652.4830306801471 683.4211258742188 0 0 0
395 1 1 0 635.5274214113804 651.2086011863868 643.1824523348362 0 0 0
631 1 1 0 678.5988747649947 683.9312646168146 644.1940730640815 0 0 0
397 1 1 0 634.2838795482683 641.9819822080506 670.298104644683 0 0 0
1757 1 1 0 668.1880972097201 643.3799868935598 684.3726629870281 0 0 0
2107 1 1 0 665.7794796075656 683.2043130382165 678.3570598914711 0 0 0
400 1 1 0 637.5470814635444 660.7721527904147 637.4598924744116 0 0 0
401 1 1 0 636.2934791984968 660.5834546821337 638.2399517897298 0 0 0
402 1 1 0 635.1490417497122 660.7221290541775 637.3505544838757 0 0 0
403 1 1 0 634.3730331517754 659.4366628740221 637.3293829839596 0 0 0
404 1 1 0 633.9317845869158 658.7280938069428 638.5683283051994 0 0 0
405 1 1 0 666.9629765576187 652.800225340463 637.7271763794246 0 0 0
406 1 1 0 669.22996875723 657.7326870026022 634.7079240725694 0 0 0
407 1 1 0 662.6002502196176 654.3692035695079 683.6228214909631 0 0 0
408 1 1 0 637.0583445881304 658.3158108769024 638.6340877074462 0 0 0
409 1 1 0 636.2408821143912 659.4597993004548 639.0690170163434 0 0 0
410 1 1 0 636.5671339609806 657.0603683971515 638.8647528248255 0 0 0
411 1 1 0 636.0082591241129 656.3171963464026 639.876167490647 0 0 0
412 1 1 0 634.9288745832963 659.0810587416945 639.6236309435103 0 0 0
413 1 1 0 634.8251721108478 658.3766348726101 640.8631825388853 0 0 0
414 1 1 0 635.1158870352002 657.0144544412049 640.7208119672306 0 0 0
415 1 1 0 664.9834841959598 639.8359245481528 683.5752341566305 0 0 0
416 1 1 0 665.6647249406349 641.0140662511595 683.4498317205023 0 0 0
417 1 1 0 664.6709887926299 644.349735126337 683.8346300775204 0 0 0
418 1 1 0 658.1475928315783 668.7806548299321 633.7193296646353 0 0 0
419 1 1 0 664.6685277102088 645.7308222652829 683.4207312122331 0 0 0
420 1 1 0 648.9402876659145 675.1716567653259 656.9038810127138 0 0 0
1263 1 1 0 633.0888389802129 660.2458779918663 650.2241095244947 0 0 0
422 1 1 0 633.763364916695 651.1353796897181 682.7756373994953 0 0 0
423 1 1 0 665.4177449194684 643.5489708864588 682.9333758521586 0 0 0
424 1 1 0 633.4445355099864 640.8437017527868 664.5208243508124 0 0 0
425 1 1 0 632.9603739292781 640.3036503188371 677.5596708775232 0 0 0
426 1 1 0 665.9181943958406 672.2915866563551 637.6623955319459 0 0 0
427 1 1 0 632.8711994037527 644.1214330934932 675.9736083477394 0 0 0