LAMMPS data file via write_data, version 2 Aug 2023, timestep = 50000, units = metal

16864 atoms
1 atom types

638.5299060924904 729.9040939074905 xlo xhi
638.8135831971176 730.3294168028797 ylo yhi
638.9758243821805 730.1671756178168 zlo zhi

Masses

1 12.0107

Atoms # full

1 1 1 0 641.0961081072302 652.489945883056 641.8755572028098 0 0 0
2 1 1 0 665.5109882256795 662.5251901379914 640.7267416313783 0 0 0
3 1 1 0 644.4716460039506 656.3839709477195 639.8826172874845 0 0 0
4 1 1 0 666.8558317413558 656.7337712722283 640.2294722745287 0 0 0
6249 1 1 0 652.8611170734838 684.5113834257506 657.8329059604861 0 0 0
6 1 1 0 665.5369677836549 667.9611822553464 640.8697551612697 0 0 0
1422 1 1 0 648.0100053385313 639.0027747173275 672.2075067835224 0 0 0
8 1 1 0 643.019166196033 666.260607250594 682.7913439089964 0 0 0
9 1 1 0 682.492719626322 644.5805338466156 644.2243972071858 0 0 0
1830 1 1 0 673.1813182873176 678.7810980349407 683.2391291293761 0 0 0
1997 1 1 0 665.6908209156769 639.3934568886717 664.6054569241996 0 0 0
1345 1 1 0 651.4032365287893 639.4169657731486 665.6765452424091 0 0 0
2008 1 1 0 662.4280432829331 680.0032081206364 639.3853579623164 0 0 0
1384 1 1 0 674.2123537553609 639.3264520267503 655.4889059909732 0 0 0
15 1 1 0 640.0111406294438 651.5044446766199 645.5447907450023 0 0 0
4240 1 1 0 650.5865833405446 684.4879422164653 639.011444114068 0 0 0
9368 1 1 0 684.1364519300727 654.8263193005042 645.865976421335 0 0 0
18 1 1 0 640.8298595429392 665.1935804317753 682.7890082252516 0 0 0
1264 1 1 0 661.3646176116038 673.6809092907213 639.6623042240483 0 0 0
20 1 1 0 650.7085733381801 682.1805569844413 639.971447559294 0 0 0
21 1 1 0 640.1409325610864 675.5109754191295 660.8890576115728 0 0 0
22 1 1 0 664.1130556132055 670.1942841457216 640.8870946585905 0 0 0
23 1 1 0 641.2126420136399 677.6088492182322 660.5263747407128 0 0 0
24 1 1 0 662.0163217446483 672.7934888501677 640.5675649066559 0 0 0
25 1 1 0 664.996718952448 673.4916287156406 640.8510779689191 0 0 0
1331 1 1 0 650.6446986621023 639.8853837716894 664.3906982137229 0 0 0
7 1 1 0 639.328072165685 643.1265353297238 644.4866841397024 0 0 0
28 1 1 0 666.729826183451 670.0041821865591 642.3577567018536 0 0 0
29 1 1 0 650.2743751365838 683.4284260906632 657.4168858836014 0 0 0
30 1 1 0 666.5114625769573 667.9404226646698 641.9167731563392 0 0 0
4950 1 1 0 657.0745935603436 684.4095918399172 661.7986511965265 0 0 0
3289 1 1 0 649.0756698360933 663.6533345387927 684.5138089402932 0 0 0
33 1 1 0 641.0058968793309 649.2325864824683 641.0961450680185 0 0 0
34 1 1 0 641.8455776123945 651.5650539029159 641.1000576729791 0 0 0
1944 1 1 0 664.0859445511298 675.0820877965614 639.2201762876934 0 0 0
36 1 1 0 672.1748003515022 657.6418846785126 645.6323588993505 0 0 0
37 1 1 0 641.6498541418549 646.1254924149137 639.4156899164591 0 0 0
38 1 1 0 676.5844804413614 640.4907561228598 661.4370737949125 0 0 0
39 1 1 0 682.6456257514875 656.4012322164691 647.2875644112163 0 0 0
40 1 1 0 653.2224385617574 681.6480244183024 640.4454674107998 0 0 0
41 1 1 0 664.3325358966846 663.2828189484534 642.6180901487008 0 0 0
42 1 1 0 664.7032070325349 666.7702235011328 640.8298034726681 0 0 0
43 1 1 0 679.8585630420109 656.7462085846781 640.4460377574056 0 0 0
44 1 1 0 680.2470578893173 643.3511936471423 652.9810831979493 0 0 0
45 1 1 0 663.4627404495315 664.3612883470786 643.0934038570393 0 0 0
46 1 1 0 667.07754141916 660.917516180131 643.9231297024456 0 0 0
47 1 1 0 680.1357804360374 641.3378872009608 641.0821418861287 0 0 0
48 1 1 0 681.2811973790773 646.6702396450295 643.8413002555756 0 0 0
49 1 1 0 679.7042399098221 643.7072205557006 644.4836832796387 0 0 0
50 1 1 0 680.3796431413173 644.2746525314903 643.3565025415758 0 0 0
51 1 1 0 681.3923415183687 645.2077479554911 643.5585871424586 0 0 0
52 1 1 0 682.1652737409783 651.4904317298721 643.6770779490693 0 0 0
1982 1 1 0 680.4094861987452 639.3814275302357 657.0118153926907 0 0 0
54 1 1 0 683.0183833338863 655.1006183653122 646.7465425004403 0 0 0
55 1 1 0 678.8317508376841 641.889058918945 643.0012556659533 0 0 0
56 1 1 0 645.3967460710289 681.9768679097664 660.2909001061452 0 0 0
57 1 1 0 682.0208078836225 642.7354906519214 642.6512126359974 0 0 0
58 1 1 0 679.0667381077759 642.4516516415276 644.3724196788984 0 0 0
59 1 1 0 680.7136868101414 643.2822992297038 642.3816204834077 0 0 0
60 1 1 0 682.5864729740828 643.2302712020911 643.8411865788664 0 0 0
61 1 1 0 642.2643495179012 662.8139819489567 657.2242545591392 0 0 0
62 1 1 0 678.1727207053151 640.5374294207326 663.3671831733948 0 0 0
63 1 1 0 679.7372919205802 642.3367061979809 642.0233440185976 0 0 0
64 1 1 0 656.8290855807642 680.5803022221802 647.9290796833329 0 0 0
65 1 1 0 682.5942962451651 642.3315571378323 644.9314550469281 0 0 0
9153 1 1 0 683.70938057377 643.8097703284836 646.412142910082 0 0 0
67 1 1 0 682.139941787026 641.4032179277004 642.3916135362557 0 0 0
68 1 1 0 643.7221682278529 641.7598744606165 672.0574984834866 0 0 0
69 1 1 0 665.780686513016 667.5070854029398 643.1777474967488 0 0 0
70 1 1 0 678.4211675755773 641.8822410102168 645.5947402069119 0 0 0
71 1 1 0 647.5393869165422 664.376519676897 659.314935533113 0 0 0
72 1 1 0 670.6160282688611 657.9156060758602 649.0021118703411 0 0 0
73 1 1 0 643.0443646596558 665.0203633799771 658.395961800388 0 0 0
74 1 1 0 643.6829579335647 662.915175736888 657.485576574592 0 0 0
75 1 1 0 669.8949918958077 667.2344701948211 645.1175214282578 0 0 0
76 1 1 0 676.7345191601598 656.6848607508598 646.9392348615931 0 0 0
77 1 1 0 680.0812414215911 682.6440491426988 647.6605635250329 0 0 0
78 1 1 0 678.5373794599226 681.5321554291611 651.6555448669781 0 0 0
79 1 1 0 665.274976881881 657.7075762031619 643.8956984715416 0 0 0
80 1 1 0 659.8971966372646 680.3435938143416 642.1183878904083 0 0 0
81 1 1 0 678.2890593073582 681.4381698553474 649.2565038765006 0 0 0
82 1 1 0 677.9332553852456 680.9148893943238 650.5180614376736 0 0 0
83 1 1 0 644.8267831032488 642.5350595200443 674.151592784568 0 0 0
84 1 1 0 644.666120795097 666.4469483381333 659.5744039705226 0 0 0
85 1 1 0 663.559728699371 676.9984394391932 644.8804501232537 0 0 0
86 1 1 0 667.2408307799881 657.2202476139898 645.1652256856183 0 0 0
87 1 1 0 663.4400031172274 678.4876125108145 644.4467977677095 0 0 0
88 1 1 0 642.9952092556181 672.3716776965346 661.4070302202077 0 0 0
89 1 1 0 653.0621329012083 656.6305962458398 655.8324822902839 0 0 0
90 1 1 0 665.6056571148296 662.1010983411257 646.8324102669839 0 0 0
91 1 1 0 665.8155683239416 657.2969210079867 645.1655480882304 0 0 0
92 1 1 0 654.8057513349166 681.6515975255463 642.8091745466937 0 0 0
93 1 1 0 657.3542001107984 639.840285224862 664.7255353513764 0 0 0
94 1 1 0 674.273826961738 656.3726963666356 646.4660850445844 0 0 0
95 1 1 0 658.2385675388247 682.1227890891622 642.540635234538 0 0 0
96 1 1 0 657.0739422697329 682.9676989771812 664.9100821435611 0 0 0
97 1 1 0 642.1004489819545 655.2489091303084 648.5178712771955 0 0 0
98 1 1 0 641.37613901119 654.2352217563357 647.7371046632517 0 0 0
99 1 1 0 643.1312492365129 655.9028517329406 647.7313840610916 0 0 0
100 1 1 0 643.3041271405128 655.4867625870085 646.3468535909634 0 0 0
101 1 1 0 643.0775544774775 657.878229764681 649.2609051400011 0 0 0
102 1 1 0 643.0726185342414 657.3255409962874 647.9547769404172 0 0 0
103 1 1 0 644.0706147549832 658.7764985486109 649.7121960506364 0 0 0
104 1 1 0 644.7462168019973 659.5205233320838 648.6964192154643 0 0 0
105 1 1 0 641.5408897646616 653.601220553938 646.2656927211707 0 0 0
106 1 1 0 674.0153167270428 660.8781408636497 681.9810312271937 0 0 0
107 1 1 0 642.0375804403545 655.0296518390272 645.8767139075815 0 0 0
108 1 1 0 641.0099221246021 656.2298085652016 645.803176241453 0 0 0
109 1 1 0 642.9465478082506 658.0705380229492 646.7602936835333 0 0 0
110 1 1 0 641.9175003914019 657.5476869020532 645.7896417469651 0 0 0
111 1 1 0 645.0108914051971 659.1838723524966 647.3629941383426 0 0 0
112 1 1 0 644.3570186267622 658.5159635398202 646.4020133110877 0 0 0
113 1 1 0 665.4729004244952 672.3333818131756 641.608604974585 0 0 0
114 1 1 0 673.9724966616445 659.8730272608658 682.921405703402 0 0 0
1834 1 1 0 677.2283866767614 665.2293180437408 683.9599969708889 0 0 0
116 1 1 0 642.9147955612567 657.6620520101382 644.7425481390783 0 0 0
117 1 1 0 642.7702279659582 657.0756897242612 643.4616951973277 0 0 0
118 1 1 0 644.2459529328812 657.5813677759163 645.3039879642419 0 0 0
119 1 1 0 644.2206093597066 656.0271456084606 645.2830205431878 0 0 0
120 1 1 0 665.433782125767 656.9121625765362 640.4486858925333 0 0 0
121 1 1 0 681.4638007526986 682.1825488176978 658.698116040599 0 0 0
122 1 1 0 656.4225656264991 641.2201044177701 659.2558603844537 0 0 0
123 1 1 0 645.6587001590907 643.2011270202416 669.1851395037513 0 0 0
124 1 1 0 663.7829598227601 677.549440327296 639.815913193028 0 0 0
125 1 1 0 645.0740572951205 675.1267667112828 661.3897458206698 0 0 0
126 1 1 0 653.7841978581883 641.3825639042836 661.742050411417 0 0 0
127 1 1 0 672.978687792452 660.114941579882 649.899967253687 0 0 0
128 1 1 0 671.9102018984513 660.9927483427907 649.6708227048618 0 0 0
129 1 1 0 674.2060326548246 660.7437690311726 650.0965759492562 0 0 0
130 1 1 0 674.6245475682463 661.602711594534 649.0682916065444 0 0 0
131 1 1 0 676.9701512428493 661.0224606883033 648.9173524358357 0 0 0
132 1 1 0 675.7633253151844 661.4736289547258 648.3414692546107 0 0 0
133 1 1 0 672.2360853412978 662.2218909030069 649.0509790641693 0 0 0
134 1 1 0 671.4001202449989 663.2457212078341 648.4129736079166 0 0 0
135 1 1 0 673.5370931727296 662.2668316084947 648.379295843671 0 0 0
136 1 1 0 673.3464384456408 662.0521716158164 646.9686869468945 0 0 0
137 1 1 0 675.5805064989765 661.4453526845156 646.9536432542816 0 0 0
138 1 1 0 674.4268994823747 661.832481992083 646.2047724733578 0 0 0
139 1 1 0 676.4523423170463 660.598426543374 646.319750148999 0 0 0
140 1 1 0 671.0758571463916 662.8227428902596 647.0814153661125 0 0 0
141 1 1 0 669.8371747247162 663.2281941098546 646.6685984962751 0 0 0
142 1 1 0 671.9376637138438 661.5933132295148 646.4163892152291 0 0 0
143 1 1 0 671.808245953775 661.2067133208626 644.9079107900629 0 0 0
144 1 1 0 674.3222148950143 661.391511302091 644.8363091209332 0 0 0
145 1 1 0 673.0773548745608 660.8292998188796 644.3504458657774 0 0 0
146 1 1 0 675.5127121109397 660.9534787427148 644.2321259910923 0 0 0
147 1 1 0 675.49575801226 660.2715655708932 642.9694056840518 0 0 0
148 1 1 0 669.3496049191008 660.9839122958107 645.0016317467466 0 0 0
149 1 1 0 670.5205753823622 660.6747133999565 644.2512858834327 0 0 0
150 1 1 0 673.1619558067201 659.59775623855 643.5419996722668 0 0 0
151 1 1 0 674.4390883752963 659.2835346711313 643.0090160905442 0 0 0
152 1 1 0 668.9883586693377 660.4612238096564 646.3068963959432 0 0 0
153 1 1 0 670.6018626974259 659.5942007194134 643.0828531310112 0 0 0
154 1 1 0 671.7621441676657 658.8992759769213 643.5829289578953 0 0 0
155 1 1 0 674.9450327816284 657.9682757869118 643.0727082307448 0 0 0
156 1 1 0 676.1151309833537 657.712762770922 642.2851030006345 0 0 0
157 1 1 0 670.6989189678229 659.9527729495688 647.7843345497289 0 0 0
158 1 1 0 670.6022455168907 660.3183325372275 649.2775282095005 0 0 0
159 1 1 0 671.9112418452032 660.2992587554897 647.1918044821396 0 0 0
160 1 1 0 672.9620861603275 659.4317833329344 647.4572831760445 0 0 0
161 1 1 0 673.6890965276591 657.5876292908005 645.4932623132559 0 0 0
162 1 1 0 673.8783789276425 658.7338026937686 646.6722531604531 0 0 0
163 1 1 0 674.6664257045586 657.3396105543998 644.2921476494805 0 0 0
164 1 1 0 675.7754880066324 656.552968762922 644.7144664969707 0 0 0
165 1 1 0 677.0444634818676 656.7821775857041 642.7887863955688 0 0 0
166 1 1 0 677.0278499001836 656.6499010372893 644.1944649023034 0 0 0
167 1 1 0 671.3908555744691 658.963238813006 649.481523382417 0 0 0
8869 1 1 0 683.3572858232177 684.229612650171 643.6230872194591 0 0 0
169 1 1 0 672.8863645356311 658.904388803182 648.9181748950455 0 0 0
170 1 1 0 672.8535522800968 657.5319827031199 648.0542132285882 0 0 0
171 1 1 0 675.1120543929874 658.2100192366827 647.6155660883085 0 0 0
172 1 1 0 674.1303308550798 657.0443215782979 647.7243095550978 0 0 0
173 1 1 0 676.4040883336592 658.0517443317094 647.266867539702 0 0 0
174 1 1 0 681.3085122159617 656.7145090779803 647.7904326821977 0 0 0
175 1 1 0 675.6267654428389 655.924973300701 646.1042518049394 0 0 0
176 1 1 0 645.0325050353973 667.6241782049389 660.2014360902667 0 0 0
177 1 1 0 639.6976093684386 643.3801843962638 640.8095041412951 0 0 0
178 1 1 0 679.6035644913161 654.3028970433174 645.0649742934784 0 0 0
179 1 1 0 680.159838168195 653.1886869441822 644.2264706486487 0 0 0
180 1 1 0 662.9204450695715 679.9365522866748 662.694726130917 0 0 0
1816 1 1 0 671.7491923773522 639.3164357914543 657.4497320974336 0 0 0
182 1 1 0 677.6982543416677 677.6241354983592 654.4247898354325 0 0 0
183 1 1 0 644.151877340124 650.6223880081814 640.38434340645 0 0 0
184 1 1 0 669.7281633798923 659.2365852231646 646.8602716169751 0 0 0
185 1 1 0 643.6484985607395 639.6477208758893 681.1392987223714 0 0 0
186 1 1 0 646.8205167918285 665.3398414758403 660.0273243558999 0 0 0
187 1 1 0 658.8029175867367 639.8531038466136 664.871071726362 0 0 0
188 1 1 0 657.0337108473808 640.7918265100244 660.5755218673564 0 0 0
189 1 1 0 655.7037987004329 680.7505315154486 643.4339279348761 0 0 0
190 1 1 0 679.0280205106684 653.9910920320489 646.4693321239686 0 0 0
191 1 1 0 679.069423827296 652.6012054608531 646.7565023868111 0 0 0
192 1 1 0 680.1007320141937 651.848543384132 644.701078094198 0 0 0
193 1 1 0 680.0905257037991 651.7992908541975 646.1662457174817 0 0 0
194 1 1 0 676.6503853801019 660.7318779967769 644.9824717435182 0 0 0
195 1 1 0 677.7808807110897 659.9729007468028 648.4190739526877 0 0 0
196 1 1 0 677.1568233925473 659.4247638332362 647.1294250866015 0 0 0
197 1 1 0 679.0724641643483 658.1473870082818 646.9185710402115 0 0 0
198 1 1 0 678.3811717248592 659.1201577070808 646.34669566364 0 0 0
199 1 1 0 679.6052635063586 657.1873335317078 645.9741216904074 0 0 0
200 1 1 0 680.5444789355669 658.0289646168267 645.1026418202863 0 0 0
201 1 1 0 681.3795331866711 655.8786780277156 644.620195452329 0 0 0
202 1 1 0 681.5062683559735 657.2770064199257 644.4703377583717 0 0 0
203 1 1 0 681.5758621417837 655.2036205099532 643.5387503003022 0 0 0
204 1 1 0 682.3334793789512 655.8128814093515 642.603858714115 0 0 0
205 1 1 0 678.8923965790495 659.7999278970469 645.2886859140146 0 0 0
206 1 1 0 677.9383759402951 660.4406826132932 644.4887997316663 0 0 0
207 1 1 0 680.3571201313313 659.5269830291248 644.9622629422785 0 0 0
208 1 1 0 680.4334142028642 659.8000834962199 643.4322059684529 0 0 0
209 1 1 0 682.4306381370727 658.1067181715788 643.577557191852 0 0 0
210 1 1 0 681.5523417079186 659.1807390970048 642.8802802598776 0 0 0
211 1 1 0 682.8940131674747 657.0708669895154 642.5630491250109 0 0 0
212 1 1 0 678.6680260683754 641.2147640388506 655.7182646458889 0 0 0
213 1 1 0 678.0281076764286 660.3203856862597 643.1422400161531 0 0 0
214 1 1 0 676.7845094520616 659.9745378610202 642.4105091078496 0 0 0
215 1 1 0 679.2955426482564 660.036457456253 642.6222080957311 0 0 0
216 1 1 0 679.2825716690835 659.3667967960968 641.3165539827363 0 0 0
217 1 1 0 681.7589654097046 659.2182169504529 641.487157511199 0 0 0
218 1 1 0 680.536507972474 658.9757587418048 640.741478656408 0 0 0
219 1 1 0 661.8130344941335 674.8230711018721 644.0716108505048 0 0 0
220 1 1 0 682.706239395661 660.4314678108612 645.6538935482008 0 0 0
221 1 1 0 644.8499206151392 663.8726665394723 659.6578250015042 0 0 0
718 1 1 0 674.745966668979 639.1818370914402 654.2374345949509 0 0 0
223 1 1 0 659.1921601776268 679.137751699705 644.4113444517197 0 0 0
224 1 1 0 640.1413502871779 675.9242080911805 657.3818003965961 0 0 0
225 1 1 0 653.4037306738273 683.0405574037466 662.4233996218703 0 0 0
226 1 1 0 644.4720169603423 642.7986824471153 672.7534696471051 0 0 0
9614 1 1 0 683.6438369998666 683.3213272691319 640.9102863397204 0 0 0
994 1 1 0 647.1384115212605 639.3359817764916 676.2129804502742 0 0 0
16 1 1 0 639.186106366504 641.9747157803585 645.4047880407003 0 0 0
230 1 1 0 679.865384867816 680.6578343555902 657.7291381924823 0 0 0
231 1 1 0 649.085027714525 641.1535642012141 668.0952703834785 0 0 0
1844 1 1 0 674.1871521056869 639.2697676052818 660.1237671003238 0 0 0
233 1 1 0 681.0649648356928 653.7739803899174 643.1021521983894 0 0 0
234 1 1 0 682.3299401592643 652.7348108345304 642.9568191306755 0 0 0
235 1 1 0 680.7920579490974 650.9258990946606 643.8151880393544 0 0 0
236 1 1 0 680.5959178517763 649.5072729504749 643.6370451747104 0 0 0
237 1 1 0 680.9829474140226 647.9284192415988 643.7243469044643 0 0 0
238 1 1 0 682.1227573338015 647.321618033679 648.82564320995 0 0 0
239 1 1 0 665.6012274842894 659.8765474951715 649.7412997435734 0 0 0
240 1 1 0 668.2921601135149 661.3819629827751 649.6728654227447 0 0 0
241 1 1 0 645.4675799571463 664.3095049005275 656.7333409252152 0 0 0
242 1 1 0 645.1320590615222 665.7786656058352 657.0509928790616 0 0 0
243 1 1 0 646.2435513678465 666.6934161424814 657.0267355174955 0 0 0
244 1 1 0 646.8062767098153 663.9011989799101 657.0830528393632 0 0 0
245 1 1 0 647.5035396078753 664.7705148860317 657.9586052410041 0 0 0
246 1 1 0 645.3433128252335 665.2021904365538 659.9537650212009 0 0 0
247 1 1 0 678.0693340342482 640.6990033980956 642.7331980792818 0 0 0
248 1 1 0 656.1486105767711 677.7715108661324 644.7809527264322 0 0 0
249 1 1 0 644.696146196982 673.974402499566 662.1144742722778 0 0 0
1717 1 1 0 664.6467491257617 639.2814270621984 656.2507907931259 0 0 0
251 1 1 0 644.4215894882757 678.576121218981 661.252625074777 0 0 0
252 1 1 0 646.1163750259647 679.6555358054464 662.1108489333109 0 0 0
253 1 1 0 664.4431089267198 666.7998207120113 643.1632912918091 0 0 0
254 1 1 0 647.4898480856749 666.1614698675942 657.6455380406676 0 0 0
255 1 1 0 681.8988781519129 655.3714841222508 640.3853412391952 0 0 0
256 1 1 0 667.4549410732126 674.896514676966 647.5698417549036 0 0 0
257 1 1 0 643.7650684326044 668.8387390250465 657.6654993928621 0 0 0
258 1 1 0 656.8455714090559 653.3337264789635 655.8222742003435 0 0 0
259 1 1 0 656.4261389596879 677.3032854418278 643.4468876348493 0 0 0
260 1 1 0 643.1029126826476 640.738401481013 674.0805222093257 0 0 0
261 1 1 0 645.0774639946857 639.6437851376336 681.35846715631 0 0 0
262 1 1 0 644.1028777538531 666.1923409209115 658.1091628819247 0 0 0
263 1 1 0 669.7408039226943 670.4005136627309 647.8649759700346 0 0 0
264 1 1 0 644.8708952059267 671.4975309948136 657.7775690831551 0 0 0
265 1 1 0 669.8319469683598 671.60390727883 648.5666175997482 0 0 0
266 1 1 0 669.1060127235813 672.7293826871576 648.2561535793983 0 0 0
267 1 1 0 670.4896753568529 674.1656941394868 649.4890334264547 0 0 0
268 1 1 0 669.3140682987711 673.9551743574473 648.781371325214 0 0 0
269 1 1 0 671.0182782855268 675.5057956426726 649.638404894395 0 0 0
270 1 1 0 670.1266449319899 676.5565263227336 649.5159045315246 0 0 0
271 1 1 0 670.2126117445333 677.7891742217412 650.1829713566814 0 0 0
272 1 1 0 655.455718389669 680.2113217070012 647.9305311895793 0 0 0
229 1 1 0 652.3413513947627 639.8036647438811 660.6127352617988 0 0 0
274 1 1 0 669.4554145370057 674.2202568518677 682.8976557961014 0 0 0
66 1 1 0 665.7573102742634 639.2069699811676 665.9804737241388 0 0 0
276 1 1 0 643.8165779645235 639.6440653366292 678.773426196362 0 0 0
277 1 1 0 654.1043078103908 641.8731684557227 660.4631300238268 0 0 0
278 1 1 0 660.9119706706022 677.8714769577913 641.2957288076063 0 0 0
279 1 1 0 640.1108606118402 676.8779609900631 661.0085587206149 0 0 0
280 1 1 0 668.5463019495644 675.0443624366097 648.4126630198697 0 0 0
281 1 1 0 658.6606161982827 680.7717514690154 642.707087817014 0 0 0
282 1 1 0 668.9575608964112 676.28935086191 648.8003638829091 0 0 0
283 1 1 0 668.148626982659 677.4098550801765 648.4648560778738 0 0 0
284 1 1 0 669.0269622298013 678.5707430285204 650.3154422971822 0 0 0
285 1 1 0 668.014290018952 678.5194370314466 649.3605292812031 0 0 0
286 1 1 0 668.5567704228163 678.7431474184385 651.634954783263 0 0 0
287 1 1 0 659.2607255877705 678.824648077512 647.0359830503086 0 0 0
288 1 1 0 682.1122725822539 641.0507866238001 658.2834230627598 0 0 0
289 1 1 0 658.2218133206742 641.6554343826725 662.4590331893875 0 0 0
2070 1 1 0 644.1549683724309 657.623290296547 639.2021525369988 0 0 0
291 1 1 0 646.5575732907109 644.2562253212633 669.3673938201844 0 0 0
9155 1 1 0 638.7131233857207 651.5586286535874 647.7214890355139 1 0 0
293 1 1 0 655.7967635714383 677.7560900804725 642.2249544286509 0 0 0
294 1 1 0 679.9595672968062 646.4763878029001 649.4502129775535 0 0 0
295 1 1 0 678.6716334221738 657.1240070660168 641.0606893792011 0 0 0
296 1 1 0 654.7975783324381 678.7743635544984 642.4024619720625 0 0 0
297 1 1 0 681.4014287749219 643.823660155113 647.857409878742 0 0 0
298 1 1 0 682.6949924182863 678.1192170109795 660.6722091336264 0 0 0
299 1 1 0 666.7667590573153 679.1020626040654 649.6298207061027 0 0 0
300 1 1 0 652.3555318585558 671.3594827950545 681.4711128379458 0 0 0
301 1 1 0 666.2849813826637 679.413364896127 651.0027401973447 0 0 0
302 1 1 0 640.5154691208295 655.8989652044082 639.9000563340704 0 0 0
303 1 1 0 682.2504129604775 676.6980562871204 658.3710067086112 0 0 0
304 1 1 0 641.368693016526 647.8783858857704 640.938743626174 0 0 0
305 1 1 0 663.5629016069084 671.779757501701 643.1488661510185 0 0 0
306 1 1 0 645.8586906442657 664.7542719214272 681.6118120158967 0 0 0
307 1 1 0 668.7214849007039 663.7359672139478 645.7544436782509 0 0 0
308 1 1 0 646.2306653200316 677.2421529181591 659.8646727360658 0 0 0
309 1 1 0 639.4669956866126 672.9605736832714 661.0106831945657 0 0 0
310 1 1 0 664.2803792430409 672.3050898136836 644.2583937759532 0 0 0
2055 1 1 0 664.4869174205768 673.735424834634 639.5219967051722 0 0 0
312 1 1 0 657.9838112226894 641.6622416660002 661.0746814427667 0 0 0
506 1 1 0 639.1754408597553 662.054893976399 682.2060974072832 0 0 0
314 1 1 0 667.1771140149818 665.3586003551965 647.878850029881 0 0 0
315 1 1 0 667.3334950557926 679.5150555845854 651.9754607675742 0 0 0
316 1 1 0 670.2115899271698 665.897506034638 647.1979518364406 0 0 0
317 1 1 0 670.5330857496172 668.2689730040597 647.2698045748963 0 0 0
318 1 1 0 670.5864639183706 669.3373205398564 648.1367316866535 0 0 0
319 1 1 0 671.0001655036833 671.7798981269282 649.4227577541474 0 0 0
320 1 1 0 671.2898952032203 673.0738104312372 649.7389803623118 0 0 0
321 1 1 0 670.932464492068 664.4384408027936 648.8637943545261 0 0 0
322 1 1 0 669.5896506964871 664.850251586764 648.1538385767137 0 0 0
323 1 1 0 671.6165188453463 665.5424081612384 649.4264476061684 0 0 0
324 1 1 0 671.5728449496493 666.8742130580864 648.968682940866 0 0 0
325 1 1 0 673.3439023991556 668.4961298954696 650.3964447857697 0 0 0
326 1 1 0 672.1906855986398 668.1593483164551 649.5573814434678 0 0 0
327 1 1 0 673.7318847475285 669.723830543204 650.9758856598168 0 0 0
328 1 1 0 673.0500284911625 670.8469098280103 650.3396726728168 0 0 0
329 1 1 0 674.6316596217406 672.4481233666545 650.9840964381289 0 0 0
330 1 1 0 673.4639596258328 672.0981376533862 650.4719681319273 0 0 0
331 1 1 0 674.8518520681284 673.6693831020763 651.5229436921707 0 0 0
332 1 1 0 674.3546130459547 674.7431598302644 650.7849536373735 0 0 0
333 1 1 0 674.739074622955 676.1146076093041 652.6151107089173 0 0 0
334 1 1 0 674.5698135388316 675.9840546304234 651.2519376779464 0 0 0
335 1 1 0 675.6511623767987 677.1263754060309 652.991746946553 0 0 0
336 1 1 0 670.8509313726738 667.0232951428836 647.7749316828777 0 0 0
337 1 1 0 671.4772284952134 669.3336369788336 649.2197506205074 0 0 0
338 1 1 0 671.7428473235938 670.6299209160742 649.803116534315 0 0 0
339 1 1 0 672.4693146548005 673.232370302995 650.4899293181445 0 0 0
340 1 1 0 673.1697246278617 674.639506035386 650.1761229083382 0 0 0
341 1 1 0 672.3021838140542 675.6526726345702 649.9867170076502 0 0 0
342 1 1 0 674.0678950176896 677.0907866152531 650.5598605168019 0 0 0
343 1 1 0 672.6557340788246 676.9139562180144 650.3411704219787 0 0 0
344 1 1 0 674.2671884807191 678.3464100521677 651.2364642120067 0 0 0
345 1 1 0 671.5702857973715 677.9442299627823 651.0968166838254 0 0 0
346 1 1 0 670.7066718628856 677.7480418995801 652.3995070659713 0 0 0
347 1 1 0 675.434928343345 678.5361062597797 652.4439717063777 0 0 0
348 1 1 0 672.9823805888437 678.7525579518616 651.6808202744743 0 0 0
349 1 1 0 669.2971341820228 677.9863077066474 652.5264529530242 0 0 0
350 1 1 0 646.2329492561472 668.1698993583843 657.0244958741456 0 0 0
351 1 1 0 647.9599696721452 666.9465715564052 658.7004677912471 0 0 0
352 1 1 0 647.303108396124 666.6382856047513 659.959381796845 0 0 0
353 1 1 0 680.2182427282067 654.8748071496914 642.1035530943761 0 0 0
354 1 1 0 645.4842011682706 641.4154117220478 676.7053239638949 0 0 0
17 1 1 0 638.7792871123016 642.0185053142278 646.7335164652329 0 0 0
356 1 1 0 647.5272924574793 668.9138734539733 657.3879332616051 0 0 0
357 1 1 0 647.2608804521033 670.4153208106646 657.5111013499211 0 0 0
358 1 1 0 648.2842177431435 671.1604138060277 658.2570367980138 0 0 0
359 1 1 0 648.8758266654203 672.5224641157054 658.5367355486162 0 0 0
360 1 1 0 648.9177725935135 673.2096907794675 659.8590790442589 0 0 0
361 1 1 0 649.0147500379013 674.4728148620865 660.6483776333498 0 0 0
362 1 1 0 648.299836559714 668.3287927859973 658.4856824606644 0 0 0
363 1 1 0 648.1532025962666 669.1440513529327 659.6383198564549 0 0 0
364 1 1 0 646.431973658205 667.6579510314805 660.4834590209608 0 0 0
365 1 1 0 646.9040803530696 668.9474983861717 660.1644168529388 0 0 0
366 1 1 0 671.3096433904634 658.0392737434554 644.6402262491436 0 0 0
367 1 1 0 642.4808252772234 655.7252786685852 641.2370124884425 0 0 0
368 1 1 0 642.120441559596 674.7420930318832 657.2852140277762 0 0 0
369 1 1 0 642.9389170561225 640.8175518952909 672.7210383194108 0 0 0
370 1 1 0 645.8316499085212 662.8704454575591 660.0419317683815 0 0 0
371 1 1 0 666.3475040039123 663.2244315141579 647.5964015029481 0 0 0
372 1 1 0 648.4150481586048 670.4997482205566 659.5552515890101 0 0 0
373 1 1 0 647.7022586041787 671.2323364165816 660.4775269901218 0 0 0
374 1 1 0 645.8273012758671 669.9489382670025 659.6666963849285 0 0 0
375 1 1 0 646.223536096233 671.2399427292092 660.3348918165856 0 0 0
376 1 1 0 645.7515292017429 670.2954503311718 658.0856830884417 0 0 0
377 1 1 0 656.7499017832318 680.8182201140859 645.6751164096964 0 0 0
378 1 1 0 639.9729195383742 654.6030057179571 644.0710281389878 0 0 0
379 1 1 0 647.2285760302755 642.6352614409084 673.7007687646259 0 0 0
380 1 1 0 658.0719897058667 678.7418723061859 647.7960797336959 0 0 0
381 1 1 0 665.728611896003 657.510733946327 647.5221040270878 0 0 0
382 1 1 0 648.0906429618465 672.4851506236995 660.8108481623572 0 0 0
383 1 1 0 645.9646729404608 672.6833211492394 659.5124753584674 0 0 0
384 1 1 0 646.3672331223075 673.7481707488615 660.210237079231 0 0 0
385 1 1 0 655.295811996787 678.9258925045738 644.8569603175939 0 0 0
386 1 1 0 655.4118879614405 680.0725330625138 645.9392496775156 0 0 0
387 1 1 0 643.1941568213111 658.7550355469698 639.4686113695387 0 0 0
388 1 1 0 655.6106507980795 678.9971890392371 647.1277594889343 0 0 0
389 1 1 0 647.1598925507794 663.0079406961055 659.5652232240093 0 0 0
390 1 1 0 669.1456341586218 660.2441846677046 649.7439942313176 0 0 0
391 1 1 0 645.8697748713356 642.5329134482247 667.8584039267448 0 0 0
392 1 1 0 653.9971423729575 640.9207295245099 659.4001982985944 0 0 0
393 1 1 0 665.0454457883483 659.0820770469759 643.7866114063572 0 0 0
394 1 1 0 650.8657604354214 681.0017501879141 650.3124353191062 0 0 0
395 1 1 0 652.1447792902148 680.8046091792369 650.8482621915351 0 0 0
396 1 1 0 650.8396707512978 681.3001853889593 648.9724089370209 0 0 0
397 1 1 0 651.9102882893686 681.816024097956 648.2100518952282 0 0 0
398 1 1 0 652.2922882471963 682.6246729702441 645.7833260795741 0 0 0
399 1 1 0 651.7585674742136 682.6428296386009 647.0647841023358 0 0 0
400 1 1 0 652.4536088440096 683.619497486642 644.8221880909296 0 0 0
401 1 1 0 652.6215551661134 681.1009717696928 642.8762836955672 0 0 0
402 1 1 0 653.2715389811865 681.432931381983 650.1780506267265 0 0 0
403 1 1 0 654.4307151256362 681.9476081677051 650.7682704870499 0 0 0
404 1 1 0 653.1769570994136 681.6008164722114 648.7670169432183 0 0 0
405 1 1 0 654.4647173931422 681.5605713630542 647.9591273916323 0 0 0
406 1 1 0 653.1408335231138 681.5226463228664 645.4992691152108 0 0 0
407 1 1 0 654.5378976081679 681.4246853402079 646.2623899571076 0 0 0
408 1 1 0 653.2151926738223 681.4325140554333 644.0786731857578 0 0 0
409 1 1 0 654.0577407048485 682.7313464730604 643.6680010980226 0 0 0
410 1 1 0 655.6088829162717 682.3426283300275 650.088016389696 0 0 0
411 1 1 0 656.9688933921775 682.2230385386831 650.4793339339649 0 0 0
412 1 1 0 655.4002897296721 682.6408948661965 648.7138651515696 0 0 0
413 1 1 0 656.400454422647 683.2522152492337 648.0163840464593 0 0 0
414 1 1 0 655.120729115609 682.9492742450831 645.9476000631955 0 0 0
415 1 1 0 656.1660051982377 683.564924972997 646.6882992190217 0 0 0
416 1 1 0 654.8657329070452 683.4465494502846 644.7594682300477 0 0 0
417 1 1 0 683.4955371621489 644.0944904414183 656.9531898737896 0 0 0
418 1 1 0 657.9734013632343 681.9555895053021 649.4598136694044 0 0 0
419 1 1 0 658.7149620951263 680.7498053554721 649.168918872569 0 0 0
420 1 1 0 657.7032186134463 682.7891281405349 648.3360859833244 0 0 0
421 1 1 0 658.3643874815991 682.3214252971558 647.0340989904994 0 0 0
422 1 1 0 657.2540102999906 684.0618882060616 645.8793301323983 0 0 0
423 1 1 0 658.4309071717609 683.2677940610656 645.9296567069722 0 0 0
9389 1 1 0 683.5710208702859 683.1174307444869 659.1887556865623 0 0 0
2007 1 1 0 681.2909495076728 638.9336867979817 639.8260143317785 0 0 0
426 1 1 0 659.8484390811075 680.9035566265834 648.2795606893623 0 0 0
427 1 1 0 657.774814805507 679.8285777319993 648.6709757091886 0 0 0