LAMMPS data file via write_data, version 2 Aug 2023, timestep = 50000, units = metal

12520 atoms
1 atom types

633.8693059966361 730.3106940033836 xlo xhi
634.1066233087646 730.7823766912271 ylo yhi
634.3302250364746 730.5587749635171 zlo zhi

Masses

1 12.0107

Atoms # full

1 1 1 0 640.9620640362001 639.0758834477888 652.4091628653428 0 0 0
2 1 1 0 647.1108971615791 635.9133425508833 655.9639011586162 0 0 0
3 1 1 0 676.0384700870911 651.2080965860944 638.4283255765524 0 0 0
4 1 1 0 641.9369184886339 639.2401756601743 644.1027543290797 0 0 0
5 1 1 0 644.050241899203 638.6439856465706 645.076105698693 0 0 0
6 1 1 0 643.1486826555692 638.5341874805495 644.0475596995983 0 0 0
7066 1 1 0 634.9893325609199 638.5019435176339 650.3238978335648 1 0 0
8 1 1 0 641.0142629971866 639.0669968087905 642.9687986458796 0 0 0
9 1 1 0 641.3894654549429 638.1462350964123 641.9227025360129 0 0 0
10 1 1 0 643.5722817606163 637.8147718331197 642.9637413897248 0 0 0
11 1 1 0 642.6971972880223 637.5771825639195 641.8728587445229 0 0 0
12 1 1 0 643.0097795192311 636.6896762084114 640.8506677574917 0 0 0
13 1 1 0 645.2451073994606 637.8063967388867 645.2849773971436 0 0 0
516 1 1 0 681.3872875309468 641.9922299701025 638.7388311774581 0 0 0
15 1 1 0 638.1928625132332 638.384091353176 652.248164182613 0 0 0
162 1 1 0 669.9193731566666 657.4793964453553 681.0408114900957 0 0 0
17 1 1 0 638.6109394068467 640.9629749856186 656.7433779466757 0 0 0
18 1 1 0 635.0919625041487 660.6988174532922 637.9519461424112 0 0 0
19 1 1 0 641.9883793196691 636.3107231124138 640.0241636617728 0 0 0
20 1 1 0 681.2123345891973 654.1375863630574 636.2330103035 0 0 0
7613 1 1 0 635.5241115898634 652.02613612085 661.7044751029354 1 0 0
22 1 1 0 638.5268176463162 639.0924381343613 653.6917706378522 0 0 0
1130 1 1 0 681.7977541766109 651.6873793319413 634.3534505358348 0 0 0
6830 1 1 0 634.188494250853 681.4472479561636 660.7188467618955 1 0 0
25 1 1 0 636.7295240881758 665.6248398013654 636.3873651498711 0 0 0
3928 1 1 0 637.1848543754688 634.1476719580113 635.1260671483294 0 1 0
27 1 1 0 646.9199511888966 639.802239037816 665.6415795434343 0 0 0
1505 1 1 0 680.2294174218641 635.1665280603452 635.0630190730345 0 0 1
29 1 1 0 660.2889520852307 667.6127034539894 671.4709934410586 0 0 0
30 1 1 0 676.2950175513187 649.124439273402 637.3141939307226 0 0 0
31 1 1 0 653.4632345890469 656.9710524694416 680.4746330481464 0 0 0
1153 1 1 0 634.515530464817 638.1597948771687 635.5216037978827 0 0 0
6554 1 1 0 636.3622912033727 652.1134922404982 662.9733886187963 1 0 0
34 1 1 0 657.5587662219476 666.8469550938643 671.9736299956244 0 0 0
35 1 1 0 678.5889895159636 646.4107570284767 637.9214495166151 0 0 0
36 1 1 0 679.9171008854867 654.9580882540467 638.1157743139896 0 0 0
417 1 1 0 638.3837209313617 682.1805185255083 657.9530658810356 0 0 0
38 1 1 0 670.7685884373024 658.950327404722 659.8252282496641 0 0 0
39 1 1 0 635.5136180924978 664.3579062665095 638.1032936521726 0 0 0
40 1 1 0 636.6784927943895 664.8810085065338 637.6229525667756 0 0 0
41 1 1 0 671.2259731493921 659.2363109412706 663.3908680049063 0 0 0
42 1 1 0 662.2280435163829 659.425667029231 679.6246048124885 0 0 0
1113 1 1 0 653.6631513183469 679.4663857348291 634.5722145960118 0 0 0
44 1 1 0 677.3793277536702 655.6438833801983 635.4069296389075 0 0 0
45 1 1 0 646.768040901095 636.9042488794449 650.0467648281034 0 0 0
46 1 1 0 653.7392055081377 662.2495449841125 673.7047382268191 0 0 0
47 1 1 0 670.1760230795078 660.400300936495 673.4330660666965 0 0 0
48 1 1 0 646.59063858534 652.9209284560403 672.7471144759319 0 0 0
49 1 1 0 679.8595454355284 646.5644595762129 637.3145116773671 0 0 0
50 1 1 0 679.3648074133399 680.2977588241831 646.9497603899981 0 0 0
28 1 1 0 677.2166318873764 649.2746437920124 635.0494159512622 0 0 0
74 1 1 0 645.7833739443578 634.6889463817345 664.94944564654 0 0 0
53 1 1 0 648.2680916142532 639.5111384486268 663.5130972549475 0 0 0
54 1 1 0 662.4177417165217 667.6765798406569 669.8302663876392 0 0 0
55 1 1 0 661.8225104874592 667.8445582062694 671.1428235147356 0 0 0
56 1 1 0 674.3146807913811 655.6933673051112 637.6521941912636 0 0 0
57 1 1 0 635.6790777575491 637.4934308752499 636.094170167988 0 0 0
58 1 1 0 635.9687990200082 639.3828124479824 652.7514003685327 0 0 0
59 1 1 0 654.5857444572404 661.508083207659 638.5523720215974 0 0 0
60 1 1 0 635.6317549707493 669.4341526681119 635.6189473622321 0 0 0
61 1 1 0 647.7135990216331 639.0839708664655 664.6701325451543 0 0 0
62 1 1 0 647.4064990870664 636.8076110546291 670.8198351498962 0 0 0
7283 1 1 0 633.9570878043091 667.8861700657837 638.2043163381137 1 0 0
64 1 1 0 638.423484042279 638.3115110782622 639.7177774787162 0 0 0
65 1 1 0 646.322083348319 639.6963541078774 666.9596723180402 0 0 0
66 1 1 0 645.329585469421 638.4737589462926 667.1648402241914 0 0 0
67 1 1 0 644.3647285951648 637.8689869326485 668.1479779445312 0 0 0
68 1 1 0 647.8823642371968 637.6645546556875 664.8797111765907 0 0 0
69 1 1 0 666.1320012007697 659.4178619480829 680.451362441845 0 0 0
70 1 1 0 651.9866803398052 659.9912931434219 678.5651669841095 0 0 0
71 1 1 0 670.1419589375662 659.3490346972425 672.4471263473786 0 0 0
72 1 1 0 646.5812014126898 637.715724976218 667.0944047711735 0 0 0
73 1 1 0 676.5410261993691 679.7354489281524 649.1835854845697 0 0 0
6674 1 1 0 634.425852827704 661.0948159091347 636.6374536816879 1 0 0
75 1 1 0 652.3547555778865 663.5625209395055 677.2606737259433 0 0 0
76 1 1 0 662.3696721003149 663.252835479398 669.8357564306752 0 0 0
77 1 1 0 654.6201292942515 656.5688088427192 642.760168956758 0 0 0
78 1 1 0 655.2606858625487 657.3663026484315 644.5425874341756 0 0 0
79 1 1 0 652.5361414448954 657.8964488594665 643.8954183050239 0 0 0
80 1 1 0 651.5326877790583 658.921198718131 643.9473578411306 0 0 0
81 1 1 0 653.9524167378642 658.0960626651374 644.015789618242 0 0 0
82 1 1 0 655.8166158722806 656.0772674118313 643.6702298717181 0 0 0
83 1 1 0 654.7927555394427 658.1018273352419 642.6469623901642 0 0 0
84 1 1 0 672.9077525073027 659.1509838891566 640.5383450844965 0 0 0
85 1 1 0 669.0060772023824 660.8009355348325 670.8552936264111 0 0 0
86 1 1 0 649.9358807855862 636.825903350169 664.2652974018498 0 0 0
87 1 1 0 649.0814838039654 672.7208002485389 635.0388374053956 0 0 0
88 1 1 0 639.6760269018232 638.6577899020158 652.6526141526425 0 0 0
89 1 1 0 641.4587332911779 639.760468788049 645.3614850752116 0 0 0
90 1 1 0 669.6995305971428 659.3480915005678 679.5113155745206 0 0 0
91 1 1 0 676.7458611572529 679.5158055419377 646.8242984031733 0 0 0
92 1 1 0 680.6039480046791 679.7798550164684 651.1302001713128 0 0 0
93 1 1 0 674.7254005263866 680.0999986177252 645.8396608555553 0 0 0
94 1 1 0 679.8415577995097 648.9168957627317 637.6610862765032 0 0 0
95 1 1 0 649.7637165693162 635.9910062299723 669.8036619125372 0 0 0
96 1 1 0 653.1572893623247 663.4056196734543 672.9971887958224 0 0 0
97 1 1 0 647.160141181306 656.0509711758319 677.2459935438231 0 0 0
98 1 1 0 678.4424020735621 680.1540169128233 650.4213748949991 0 0 0
386 1 1 0 680.8943267100748 681.859120843681 652.7453202623294 0 0 0
100 1 1 0 669.682251397084 661.6220896826902 668.7738946597599 0 0 0
101 1 1 0 640.5276300428443 638.008529588774 640.79430066674 0 0 0
102 1 1 0 657.2666553406194 662.5704436179414 673.6038802878833 0 0 0
4415 1 1 0 678.6287452692985 681.5003289613304 636.197908113004 0 0 0
290 1 1 0 637.2814789287389 681.9159533859201 662.814432149413 0 0 0
105 1 1 0 679.5725215105097 653.6411626612397 638.4898091891843 0 0 0
106 1 1 0 664.1761520093004 665.7538947602112 672.3568670185584 0 0 0
107 1 1 0 671.0674074121472 663.4585201153901 663.5383345856956 0 0 0
108 1 1 0 638.406205349283 638.8932156292896 655.1125303868913 0 0 0
3334 1 1 0 675.7083544470785 682.3296040269539 644.459847732138 0 0 0
110 1 1 0 640.3113117560429 640.583843604965 645.1662151534085 0 0 0
111 1 1 0 677.2296955730573 680.6559149349573 650.0149916041779 0 0 0
112 1 1 0 680.1393449239555 652.5613861376384 637.7881272352959 0 0 0
7349 1 1 0 681.8785460374382 636.5997085340223 636.182796243845 0 0 0
114 1 1 0 649.6414229096064 639.0530820448556 661.4188172764916 0 0 0
4453 1 1 0 679.0943134743684 681.9613540205705 637.4676620195381 0 0 0
116 1 1 0 641.9539161856335 639.1735794658968 654.6951608124109 0 0 0
3369 1 1 0 646.0544990277231 634.8651179653803 670.3017696523018 0 1 0
118 1 1 0 654.3379117290596 657.9054915373696 680.9985497264927 0 0 0
119 1 1 0 661.0799764443188 663.592985209672 670.6787441573282 0 0 0
120 1 1 0 656.5160592469226 663.853271916496 675.3514966570699 0 0 0
121 1 1 0 654.5385735049705 664.5296576067319 676.1311721774352 0 0 0
122 1 1 0 670.0202432441832 662.9223244799613 670.6653487123859 0 0 0
537 1 1 0 681.4345273123258 679.5995906155357 652.2006297770718 0 0 0
124 1 1 0 662.6234271699958 667.443543711284 672.2588279881118 0 0 0
125 1 1 0 642.0031450038258 639.1178864431004 653.2988552101867 0 0 0
126 1 1 0 655.6330735417957 661.3710098222447 639.4173167699536 0 0 0
6438 1 1 0 634.1500655641032 680.6488132613841 658.0372647714406 1 0 0
128 1 1 0 667.497974841232 659.6536708876166 680.5203499394418 0 0 0
129 1 1 0 669.0290666980558 659.4314956511937 671.478136657868 0 0 0
130 1 1 0 670.2716704033214 658.6905786405893 664.3923935479153 0 0 0
131 1 1 0 678.6838444254723 651.1510927626382 638.9895598958808 0 0 0
132 1 1 0 676.5370080826372 652.1187037858456 639.3218573522392 0 0 0
133 1 1 0 668.8272330206107 660.7629118600626 669.456815845769 0 0 0
134 1 1 0 657.5099828920054 661.465201577178 674.796506579138 0 0 0
135 1 1 0 650.1798832184091 658.8419122686844 643.4659092525212 0 0 0
136 1 1 0 649.9513961375499 658.8110668168423 639.8818508843884 0 0 0
137 1 1 0 649.0654484179314 657.7456731638434 639.7755287474864 0 0 0
138 1 1 0 651.3206345172634 658.5784386874976 640.1305087904649 0 0 0
139 1 1 0 651.6392316598658 657.272125143833 640.5350941664084 0 0 0
140 1 1 0 653.9933896138105 657.7935255125755 640.3678819170568 0 0 0
141 1 1 0 653.0059259517025 656.9236332868372 640.8517646538235 0 0 0
142 1 1 0 654.2827052102668 658.7185897586189 641.3965863929895 0 0 0
143 1 1 0 649.3047633450805 656.6118623318805 640.6370414237299 0 0 0
144 1 1 0 648.3039863869889 656.4665932802791 641.6025046830875 0 0 0
145 1 1 0 650.6218349986284 656.5524858102439 641.1806672284374 0 0 0
146 1 1 0 650.8100360345578 656.5873243900802 642.5788745193726 0 0 0
147 1 1 0 653.3003268798107 656.4177370297805 642.2132262384436 0 0 0
148 1 1 0 652.2393473789075 656.7662416554963 643.0417019802321 0 0 0
149 1 1 0 648.4193357488879 657.3909842930757 642.6886794885787 0 0 0
150 1 1 0 648.9085497705552 658.9869103287344 642.4682376598772 0 0 0
151 1 1 0 649.7778869923587 657.3541465779689 643.2813602622296 0 0 0
152 1 1 0 636.3651822047003 667.5569813959239 636.8868605093296 0 0 0
4400 1 1 0 647.6003219198749 636.660595140188 647.3893502855396 0 1 0
154 1 1 0 636.5363909050562 637.686596308752 637.2245995622462 0 0 0
155 1 1 0 679.387230251907 680.5183357678538 651.4431224146807 0 0 0
567 1 1 0 671.6256830695053 655.8930320630085 681.180515343709 0 0 0
157 1 1 0 659.5976280729869 665.7269414071029 668.3847421945904 0 0 0
158 1 1 0 639.2370926708812 639.8006178918025 641.6136019110395 0 0 0
159 1 1 0 658.4843380923367 665.0076105603301 668.8077002367 0 0 0
160 1 1 0 635.3972574766345 680.0392849676089 663.0701438276391 0 0 0
161 1 1 0 653.5406783189377 661.4777841604633 681.206877155174 0 0 0
765 1 1 0 651.7386909324707 662.9278423159061 682.2509117055838 0 0 0
163 1 1 0 648.6120316060634 657.9264797699038 678.3722670975305 0 0 0
164 1 1 0 645.4781517766985 639.5261256357343 657.0602479451748 0 0 0
165 1 1 0 639.5747764587734 640.6566476889824 643.9939282762667 0 0 0
166 1 1 0 678.7512446059621 657.0149492330595 637.4462019819971 0 0 0
167 1 1 0 677.5229032235969 657.6372819334382 637.589236078099 0 0 0
168 1 1 0 679.0966669557521 656.0553796213832 638.4544577391756 0 0 0
169 1 1 0 678.1972857909587 655.9052592133478 639.5638786457494 0 0 0
170 1 1 0 678.4486185492568 653.503937255293 639.3128539878894 0 0 0
171 1 1 0 677.7929618971215 654.595813330881 639.8647419459825 0 0 0
172 1 1 0 677.9070148257746 652.2313818988666 639.4348484745991 0 0 0
173 1 1 0 677.1582813183785 657.9799928254532 638.9274699886017 0 0 0
174 1 1 0 675.8991132260763 658.6119880566993 638.8736189176573 0 0 0
175 1 1 0 677.3495035316819 656.9631840883181 639.8873701608403 0 0 0
176 1 1 0 676.1995497419632 656.7220492270077 640.7335693461042 0 0 0
177 1 1 0 676.4033896592189 654.3461760138664 640.2406961699475 0 0 0
178 1 1 0 675.5580669259793 655.4116989949614 640.6046781386196 0 0 0
179 1 1 0 658.0296596740383 665.3625643027176 670.0914139884721 0 0 0
180 1 1 0 675.2822429847283 658.9354341003614 640.1114758999063 0 0 0
181 1 1 0 674.1967729148148 659.7700462928099 640.3079093121953 0 0 0
182 1 1 0 675.3131300693466 657.7932005343125 640.9702041435132 0 0 0
183 1 1 0 668.6505499300853 661.2784380844012 676.564148013075 0 0 0
1112 1 1 0 642.171139729147 682.2186908149489 660.2476759055776 0 0 0
185 1 1 0 675.189714298592 655.2568795244708 636.5415662119456 0 0 0
1079 1 1 0 677.748959672591 644.9955596616353 635.0008012075301 0 0 0
187 1 1 0 680.6669258353709 679.7067957270664 649.4815246959538 0 0 0
188 1 1 0 672.8516340837351 658.5460838130314 643.1257906957621 0 0 0
189 1 1 0 675.4344979344552 653.8901658283324 636.2974682693226 0 0 0
190 1 1 0 646.1158184322226 638.0047548676475 655.4071188135499 0 0 0
191 1 1 0 638.2806342084925 642.347958628469 654.8152584700197 0 0 0
192 1 1 0 657.3261237976313 662.4684459197439 670.2769741264816 0 0 0
193 1 1 0 678.6921140588454 679.8497356789827 645.6162234087342 0 0 0
194 1 1 0 645.8059983070699 636.7524188371297 669.0177063356077 0 0 0
195 1 1 0 676.2606782018228 656.1258237241495 636.162836749851 0 0 0
338 1 1 0 679.7618960777528 648.1239926026415 635.318530577295 0 0 0
3867 1 1 0 647.3709867345992 636.1510871242594 642.6628786040652 0 1 0
2992 1 1 0 644.2933840540984 636.2201787980374 640.7227420015005 0 1 0
2918 1 1 0 645.1043902694651 634.7710409157241 671.3981456369927 0 1 0
200 1 1 0 664.5092623868594 663.4223337102258 668.5021347218244 0 0 0
201 1 1 0 647.0098167580283 636.2821521872097 652.3183713709515 0 0 0
202 1 1 0 642.4193843025972 664.1952950240371 636.4325512332982 0 0 0
203 1 1 0 642.7597380415227 662.9570614951704 637.1455165262578 0 0 0
204 1 1 0 641.0121499381336 664.3295502574927 636.3412969651088 0 0 0
205 1 1 0 640.0560415218873 663.9193386120673 637.2227837927394 0 0 0
206 1 1 0 638.3506858214851 664.234090406732 635.5577527787987 0 0 0
207 1 1 0 638.7540520979022 664.3002279977604 636.8687356117825 0 0 0
208 1 1 0 641.5910832464773 662.0962027232191 637.4204116197699 0 0 0
209 1 1 0 641.4814713551715 660.8649934061916 636.7466645469038 0 0 0
210 1 1 0 640.3471359239559 662.742630977631 637.8885801059922 0 0 0
211 1 1 0 639.193611141525 662.0560664691791 638.3552635639435 0 0 0
212 1 1 0 637.851455568663 664.125311331857 637.8963019776028 0 0 0
213 1 1 0 637.934665971004 662.8548801472027 638.6026478553472 0 0 0
214 1 1 0 640.0585429531844 660.3889038609869 636.4746597816455 0 0 0
6561 1 1 0 636.2385204595059 651.7773213680674 660.5411781991702 1 0 0
216 1 1 0 639.0051484275803 660.8338545877562 637.5293211652449 0 0 0
217 1 1 0 637.5749332358727 660.9194412086384 637.064891944097 0 0 0
218 1 1 0 639.5458669284159 638.8895067959144 655.9091245128511 0 0 0
6676 1 1 0 634.7620062564752 641.8082556271761 653.6669488880228 1 0 0
220 1 1 0 678.6495192211811 679.4806426970792 648.1251132436394 0 0 0
221 1 1 0 677.8940614333642 643.0401918623414 638.4814390945169 0 0 0
222 1 1 0 669.7526292184021 661.8366619134404 671.4513130344325 0 0 0
223 1 1 0 645.3559369912062 640.9574319067444 661.5995433399016 0 0 0
224 1 1 0 645.8998337775553 656.070192891741 676.5318774736749 0 0 0
225 1 1 0 675.4456134548706 651.6799650502461 637.209250835017 0 0 0
226 1 1 0 676.3058396457313 657.2639693433591 636.9322960479877 0 0 0
232 1 1 0 634.8535356784744 682.3144551854439 674.2744741909074 0 0 0
228 1 1 0 648.576252981148 661.2111706541564 639.3824711063189 0 0 0
229 1 1 0 649.4752187028449 660.2582900451309 640.1863920424896 0 0 0
230 1 1 0 648.8447159532826 661.6084300707001 638.0592210608522 0 0 0
231 1 1 0 650.1454516486425 661.4371233881096 637.4820678727783 0 0 0
1015 1 1 0 680.0574311702178 642.7727742327929 636.7735280436441 0 0 0
233 1 1 0 650.4536839948379 661.5661403176371 636.0659082896624 0 0 0
186 1 1 0 650.3398009610713 634.8992341066413 665.4750167451843 0 0 0
235 1 1 0 648.994212281514 636.438475153205 666.7513896026268 0 0 0
236 1 1 0 634.7709504806318 681.1222324960759 665.7691579178309 0 0 0
237 1 1 0 652.7762474667437 664.5425725325181 634.9270128687408 0 0 0
238 1 1 0 653.325875651207 666.970729518948 635.3264088922958 0 0 0
239 1 1 0 654.5760769731471 666.2991862744287 635.6527184500593 0 0 0
240 1 1 0 650.8893639303062 660.7438345177177 639.7860516743564 0 0 0
241 1 1 0 651.8711103861177 659.853463853557 640.3233774358566 0 0 0
242 1 1 0 651.1423816163557 661.0575787424007 638.4193703723129 0 0 0
243 1 1 0 652.3389825721249 660.621453436607 637.9487761018 0 0 0
244 1 1 0 651.7725146896 661.2271780434802 635.7699596780666 0 0 0
245 1 1 0 652.4893729142667 660.3456179049294 636.5949998576489 0 0 0
4456 1 1 0 647.5141372820156 635.8018814448147 649.6636593376672 0 1 0
2043 1 1 0 674.6121532213899 635.1820893023818 634.5740326061199 0 0 1
248 1 1 0 647.7314901801673 665.4729091337426 635.1141000103335 0 0 0
249 1 1 0 681.3209855206494 651.6404552851817 635.7416790196098 0 0 0
3063 1 1 0 649.2653425990217 634.8688156575736 648.2691887873443 0 1 0
251 1 1 0 649.0535384109548 637.1644389898689 669.1508091953958 0 0 0
252 1 1 0 653.1799841291269 660.2939170165381 640.1899252924484 0 0 0
253 1 1 0 654.2753232857538 660.0701456676835 640.9840077610871 0 0 0
254 1 1 0 653.5615828009974 660.413629713478 638.736596662284 0 0 0
255 1 1 0 654.1348198310026 659.0183967917052 638.3167028450241 0 0 0
256 1 1 0 653.6671113381411 659.7332684770141 636.062880342542 0 0 0
257 1 1 0 654.4497949970951 658.9072410048088 636.9463187289565 0 0 0
4180 1 1 0 643.0745313216682 634.7724172994405 668.6808142425105 0 1 0
6683 1 1 0 633.9700519909168 641.0258612796589 652.7379081977709 1 0 0
260 1 1 0 680.5396323575243 650.4801207216467 635.9601196760968 0 0 0
3411 1 1 0 647.4502012353859 634.9918199951218 651.8945466720546 0 1 0
1167 1 1 0 678.1088149356042 643.5192585568936 635.2686091444194 0 0 0
263 1 1 0 650.2879385514673 661.0886834297235 680.6594509839 0 0 0
264 1 1 0 655.5681944590264 660.5826649381199 640.5713931731768 0 0 0
265 1 1 0 656.7682698790541 659.8561026416891 640.6371784477378 0 0 0
266 1 1 0 654.7030169618927 658.0620864894188 639.1705663516084 0 0 0
267 1 1 0 656.0645623866725 657.667864462296 638.9397110365599 0 0 0
268 1 1 0 655.7668029379678 658.6281719285041 636.5987462613463 0 0 0
269 1 1 0 656.5999493500958 658.169360295625 637.7058707096376 0 0 0
270 1 1 0 634.6807073159317 679.7635858807403 665.3419620488298 0 0 0
271 1 1 0 646.440387966579 636.2717352500724 666.741304340844 0 0 0
198 1 1 0 649.8456669284835 662.2566860414889 635.0029289619827 0 0 0
273 1 1 0 646.4724713623339 654.4763359547807 674.8720800370402 0 0 0
274 1 1 0 643.8430732770858 636.3240311262202 668.4423395026139 0 0 0
275 1 1 0 636.6393762131543 662.2442830376965 638.8204406454283 0 0 0
276 1 1 0 656.5635699771449 658.5631840065383 641.0877264337786 0 0 0
277 1 1 0 656.1477731226219 658.5078207646658 642.4262976455577 0 0 0
278 1 1 0 656.8515230850682 657.5692412221039 640.1349269858913 0 0 0
279 1 1 0 659.1059572819726 658.1119724719824 639.7387163030328 0 0 0
280 1 1 0 657.982354077095 658.5804198341352 637.616850858608 0 0 0
281 1 1 0 658.4711266674564 659.1160338169307 638.9383488868714 0 0 0
282 1 1 0 658.5353065650258 658.5710472343841 636.3395151409376 0 0 0
283 1 1 0 659.6973223911028 658.1030236390432 635.6157798914703 0 0 0
284 1 1 0 647.4766123832424 634.9940791172161 656.9318456148095 0 0 0
285 1 1 0 678.1983816206758 644.0616733675315 637.603226839442 0 0 0
286 1 1 0 649.1404480480132 638.7996022644363 662.8009072785753 0 0 0
287 1 1 0 663.4025246437933 663.6816227900159 667.6716792859158 0 0 0
288 1 1 0 672.0793852969148 660.6156222727637 661.5639239106565 0 0 0
289 1 1 0 663.3689281952925 664.8198509623189 671.7708218168088 0 0 0
790 1 1 0 668.3921978807923 659.2981915573107 681.5969665874026 0 0 0
291 1 1 0 670.27382298003 658.3916521253406 669.5997773155233 0 0 0
292 1 1 0 646.8992648159222 636.653743125498 664.3812716518735 0 0 0
293 1 1 0 658.9829477717635 662.1012801224391 674.6726659355812 0 0 0
294 1 1 0 662.6804062220755 662.9886820611066 678.275014064979 0 0 0
295 1 1 0 636.4756487171774 661.0679142789642 638.0600127759882 0 0 0
296 1 1 0 679.1567894792479 679.4664796274135 649.4120291725787 0 0 0
297 1 1 0 636.162042458034 641.7613552713433 653.6715204734497 0 0 0
298 1 1 0 645.4060914187679 643.0851535213449 660.4984936985088 0 0 0
299 1 1 0 648.6433745245247 666.5578761386816 635.1106744182923 0 0 0
300 1 1 0 647.2566764980252 636.0503718530401 663.1739134566336 0 0 0
301 1 1 0 671.5245294778142 662.2747734498034 667.5883443038547 0 0 0
302 1 1 0 646.1315270473876 655.8560949351152 675.1724361446993 0 0 0
303 1 1 0 655.8300624508084 661.8863694568302 678.087690359985 0 0 0
304 1 1 0 657.3802908875792 659.9622737052547 677.7063395844153 0 0 0
2816 1 1 0 655.7305566366207 660.3639964134876 635.0216049230003 0 0 1
306 1 1 0 646.683531625442 638.7102359919423 661.0984673285869 0 0 0
307 1 1 0 646.4353246256835 636.1348532885922 670.0440054669526 0 0 0
4255 1 1 0 646.5012768101099 635.9366286186823 641.6134081389005 0 1 0
16 1 1 0 655.111775923388 657.512021411984 682.0749242775955 0 0 0
310 1 1 0 648.1422938663584 667.9092321485111 635.3951496816439 0 0 0
1114 1 1 0 648.4284788453439 634.6773639218222 660.8491448657105 0 0 0
312 1 1 0 666.0610703348577 662.0128714735511 669.7378153333477 0 0 0
103 1 1 0 681.5278245987108 679.7912048627674 648.1575931972118 0 0 0
314 1 1 0 672.6858016982283 658.6316725007455 644.449747536992 0 0 0
315 1 1 0 658.5628773943644 660.7842706748038 678.0086841404752 0 0 0
316 1 1 0 652.3224188760706 662.3326381239325 681.0544880388114 0 0 0
317 1 1 0 649.0421971728285 669.0133938337459 635.4286680532114 0 0 0
318 1 1 0 648.5244199908093 670.3277129711571 635.4156184027703 0 0 0
4363 1 1 0 648.1411259758027 636.4720180845397 644.8237104873751 0 1 0
320 1 1 0 650.3856913994072 635.5396067164301 659.7224804916244 0 0 0
321 1 1 0 658.7677163842204 657.746920542604 680.5220539816374 0 0 0
322 1 1 0 676.5555292844625 679.3746661026402 644.4200090541283 0 0 0
323 1 1 0 638.6150643829731 637.2284940777234 638.7868086763792 0 0 0
308 1 1 0 646.872439463855 668.1945794293118 634.8643157708798 0 0 0
325 1 1 0 649.4739611021611 671.4227516982481 635.5316852945093 0 0 0
326 1 1 0 670.7579674792885 663.9215818411217 665.999298663384 0 0 0
327 1 1 0 650.815793558334 671.149354390148 635.311652307136 0 0 0
328 1 1 0 651.6852582221085 672.3210321125677 635.1121078529225 0 0 0
329 1 1 0 639.4935630474437 639.8866220492079 656.9890039278818 0 0 0
330 1 1 0 671.2939945426992 659.5310138985539 662.0131812678753 0 0 0
331 1 1 0 680.8782000576385 681.3051497657722 649.4639412433382 0 0 0
332 1 1 0 645.6817303131799 638.170383060153 651.7795141195825 0 0 0
333 1 1 0 649.9258820374237 673.8301965886502 635.2486141098717 0 0 0
334 1 1 0 651.2811342691092 673.5829796536582 635.5958606058979 0 0 0
335 1 1 0 652.1986929318956 674.7251577028369 635.4360702911847 0 0 0
336 1 1 0 659.3797609972622 663.2254606754084 675.5110134565707 0 0 0
337 1 1 0 671.4883647054617 660.0229365778971 659.1684138663122 0 0 0
1191 1 1 0 672.791082582615 637.5163835110119 636.5397325052902 0 0 0
339 1 1 0 652.6642131734092 658.8392316060263 676.0102756942821 0 0 0
4427 1 1 0 676.3946713302339 681.705641241665 637.2805321388128 0 0 0
341 1 1 0 646.3857114463001 654.1488149786584 673.4694524951318 0 0 0
342 1 1 0 651.6181617240608 676.0037702006055 635.3971047637647 0 0 0
343 1 1 0 647.6007958503777 639.3150853630536 660.0995112069888 0 0 0
344 1 1 0 646.198829727032 655.2758798302885 672.6226150957482 0 0 0
345 1 1 0 648.4682254278302 658.0422214184765 679.8445619184912 0 0 0
346 1 1 0 668.8828100712724 659.9606084026855 677.107043315745 0 0 0
347 1 1 0 658.6009826478562 664.9812060542349 674.6353234614724 0 0 0
348 1 1 0 658.3555886130104 667.1067552697815 673.1400326103732 0 0 0
349 1 1 0 651.6857152390156 678.3484962703504 635.0420757783237 0 0 0
350 1 1 0 670.1718519377362 660.7018336812081 666.4255849379398 0 0 0
351 1 1 0 657.9583307924277 666.2969955998273 674.2733621205871 0 0 0
352 1 1 0 661.9017953990127 666.2410923896317 672.9138495138304 0 0 0
324 1 1 0 669.214947188188 656.6981695921766 681.9829010726545 0 0 0
354 1 1 0 648.213977742256 635.9430746283118 671.5984072860654 0 0 0
3517 1 1 0 647.0525702669224 636.6964446543894 643.9148003031764 0 1 0
356 1 1 0 653.6144573291076 659.8949440004798 675.9857653365374 0 0 0
357 1 1 0 674.8126465227041 653.5874703011596 638.6221523151324 0 0 0
358 1 1 0 652.4053192277926 677.1439886700972 635.3455175015749 0 0 0
359 1 1 0 676.7600002819802 647.1011749697743 636.0982834987515 0 0 0
360 1 1 0 674.996652439811 653.0296635009119 637.3301359655803 0 0 0
361 1 1 0 645.3710644292926 639.1004872702927 655.7254739933621 0 0 0
362 1 1 0 671.566152511607 658.871086796224 667.6214294160633 0 0 0
363 1 1 0 659.4742345378627 660.2576424302881 680.8369804927235 0 0 0
364 1 1 0 640.6176711135081 639.8239825428361 657.8724384833565 0 0 0
365 1 1 0 665.9841275399244 661.729271705957 667.3600708991368 0 0 0
1141 1 1 0 672.5337286620442 637.7581558141674 637.7636793502405 0 0 0
367 1 1 0 666.8510452131624 662.8437905013882 667.1207573327965 0 0 0
6313 1 1 0 634.2338380749534 652.2787396369743 661.4849144612703 1 0 0
261 1 1 0 681.371308058052 680.97486610403 643.4178346213217 0 0 0
370 1 1 0 649.9011720770807 658.3475742637524 677.9240854507077 0 0 0
371 1 1 0 668.6583471988337 664.6156400961963 667.9520001398712 0 0 0
372 1 1 0 661.277895235944 658.5328787910477 680.1141468118749 0 0 0
373 1 1 0 646.1496006398795 641.0010582935782 659.2753045827309 0 0 0
374 1 1 0 670.8995951549248 657.950539856741 665.4873159589625 0 0 0
375 1 1 0 649.3070516621947 658.839556032191 680.7395895638193 0 0 0
376 1 1 0 659.5702021343154 660.2815224739836 678.8348696391214 0 0 0
377 1 1 0 636.1981722713816 636.4330511066922 635.2645123412535 0 0 0
378 1 1 0 670.2839916094757 660.5229062606827 674.8510398011659 0 0 0
379 1 1 0 667.1199773876214 661.6368208528487 665.0946560969328 0 0 0
380 1 1 0 647.6208395197818 657.3735740591901 677.4979838314125 0 0 0
381 1 1 0 646.9328905755898 639.8367056865427 658.9664028577176 0 0 0
382 1 1 0 654.4534445542888 663.76918836737 678.6503441493709 0 0 0
383 1 1 0 653.0893529640703 661.191874545001 675.882796961481 0 0 0
384 1 1 0 665.3896825022852 659.5419832698964 668.8892314516615 0 0 0
385 1 1 0 660.774977354641 663.8913363332484 674.9644049870228 0 0 0
1131 1 1 0 678.3574632381831 650.1246460160183 634.8496558826665 0 0 0
387 1 1 0 639.3453860185562 638.789753526977 640.6743104283297 0 0 0
388 1 1 0 656.197457048851 662.8127943109948 637.3424023218354 0 0 0
389 1 1 0 659.7194454636023 658.9537999551089 679.8799429411299 0 0 0
390 1 1 0 671.1254454098454 663.6678196071073 667.3831128750126 0 0 0
391 1 1 0 663.4346263865166 664.4975042743231 666.4658465894547 0 0 0
392 1 1 0 637.0000031882113 679.9575849538189 665.0560591869697 0 0 0
393 1 1 0 655.611954664747 664.5732942912799 678.8630475787555 0 0 0
394 1 1 0 649.4080345944933 655.4309753160411 676.6356720987927 0 0 0
395 1 1 0 662.9726560823998 661.7697827921161 678.837828919731 0 0 0
396 1 1 0 660.5770539130862 661.2707887624371 679.0166649944239 0 0 0
397 1 1 0 669.0446233609807 658.9223012549871 667.6024252433094 0 0 0
398 1 1 0 656.3845658983661 659.3155927178381 635.560802050582 0 0 0
399 1 1 0 644.3116687830425 639.5389497121478 654.9273014868277 0 0 0
400 1 1 0 670.2511270637834 659.4641680872758 677.2075232793875 0 0 0
401 1 1 0 642.4884212254171 639.3385755823898 650.404494756985 0 0 0
402 1 1 0 669.218652404051 659.4908919906511 664.7195904586505 0 0 0
403 1 1 0 664.2554689320428 665.6163272818953 666.5897853195132 0 0 0
404 1 1 0 653.6767340926866 662.2110749657063 675.0924286507546 0 0 0
405 1 1 0 638.9163764302705 642.1870880724942 656.050924068548 0 0 0
247 1 1 0 681.5788763663902 680.3224236085796 645.78286105847 0 0 0
407 1 1 0 656.9523007598434 662.6729547764417 678.3147318657002 0 0 0
408 1 1 0 654.4510052735982 659.353158249751 678.1585991214413 0 0 0
409 1 1 0 643.3039877485224 639.1724971152728 652.6948862343811 0 0 0
410 1 1 0 644.9878296656525 643.1454696529782 662.7876057760943 0 0 0
411 1 1 0 655.1791535279674 665.3254398019515 634.7991359930121 0 0 0
412 1 1 0 650.6986413140198 659.2316034845047 678.8477193801428 0 0 0
413 1 1 0 641.9630738278456 639.7277253408315 647.9084993231012 0 0 0
414 1 1 0 636.9067421902026 638.6046266598422 651.7975259461964 0 0 0
415 1 1 0 661.492803502046 665.5537086587639 666.9269591912832 0 0 0
416 1 1 0 651.8257957219264 661.4505798725953 676.4748132213656 0 0 0
2878 1 1 0 644.5313390977741 661.0661231132532 634.5997304034807 0 0 1
583 1 1 0 636.0553552384328 660.1349771218418 634.7352327507996 0 0 0
419 1 1 0 644.7986265880743 645.3889667868035 661.7317180098953 0 0 0
420 1 1 0 656.7630867321026 664.1365860219225 678.1789789296117 0 0 0
421 1 1 0 648.0604806932795 655.041270233758 676.7236709893666 0 0 0
422 1 1 0 669.1252493186599 662.8616245957394 674.7779940040618 0 0 0
423 1 1 0 645.6623588217005 641.7171402263772 660.371606635911 0 0 0
424 1 1 0 654.8321820568179 659.8814260937412 676.909476500754 0 0 0
425 1 1 0 637.162992604357 639.3223754464431 655.7260596839116 0 0 0
426 1 1 0 661.524574812656 667.1876511386903 668.8226181847042 0 0 0
427 1 1 0 665.9433905371715 666.9097001425203 668.2682317601575 0 0 0