LAMMPS data file via write_data, version 2 Aug 2023, timestep = 50000, units = metal

10348 atoms
1 atom types

643.6258217830161 720.5541782169985 xlo xhi
644.0846918962084 720.8043081037899 ylo yhi
643.8096442224976 721.0793557775007 zlo zhi

Masses

1 12.0107

Atoms # full

1 1 1 0 676.1314206144868 652.8243753772505 645.2900506032182 0 0 0
2 1 1 0 670.0344049647338 647.257091347839 656.7504168874914 0 0 0
3 1 1 0 669.8409463420497 647.4814882469409 677.4211540974579 0 0 0
3653 1 1 0 647.4741356614946 646.0584049334525 650.9476339730033 0 1 0
5 1 1 0 651.305629411077 647.4385839663119 659.6938833221392 0 0 0
6 1 1 0 647.5641203853556 647.2019797263246 652.0028963609101 0 0 0
7 1 1 0 649.1097297543449 660.3779040606648 678.9246724915969 0 0 0
8 1 1 0 649.3341597578236 645.844153478115 654.6439379697565 0 0 0
9 1 1 0 679.5576596813283 646.2620471226896 675.9434749048705 0 0 0
10 1 1 0 658.7869132040355 672.9453997548301 646.3495547800976 0 0 0
5843 1 1 0 643.9921915207776 657.3888185939386 678.6417580541221 1 0 0
2265 1 1 0 673.7181822562319 656.024989421229 644.3907796823246 0 0 1
1033 1 1 0 680.9342520932819 674.4311468803164 672.1645017535728 0 0 0
14 1 1 0 652.6565190074609 645.4506562839777 664.0235422817544 0 0 0
2451 1 1 0 678.9953905072152 655.0665370191914 644.7048475642348 0 0 1
16 1 1 0 658.880723863365 645.3423412983137 661.6065462508836 0 0 0
17 1 1 0 649.4193194136484 670.7892731112262 662.8818676261689 0 0 0
6563 1 1 0 644.5120442154986 675.9926394882483 668.528348606014 1 0 0
19 1 1 0 669.8233793701977 646.8422753946837 681.0686420566017 0 0 0
3989 1 1 0 649.3453678809399 645.328501616608 653.257762361789 0 1 0
161 1 1 0 661.3572228860837 669.4873254282898 644.6308493085833 0 0 0
3823 1 1 0 649.564498231698 644.6482118246133 646.0540002185212 0 1 0
173 1 1 0 644.9925737873025 679.3772577870795 677.9413785545014 0 0 0
24 1 1 0 646.3331198451276 678.0191538624526 666.1209821117538 0 0 0
6521 1 1 0 644.4484937765051 681.1254783020673 681.3476988940779 1 0 0
26 1 1 0 646.2455982556268 648.4732705277462 661.6052610220438 0 0 0
955 1 1 0 646.6110523133573 682.1027789256495 664.3329247697563 0 0 0
180 1 1 0 664.3275398698279 645.4020075977588 681.7079658395933 0 0 0
29 1 1 0 668.5067585416705 644.9734040695988 679.0559241095242 0 0 0
30 1 1 0 650.0825273044735 656.5351425544261 666.0511026025853 0 0 0
166 1 1 0 669.9662509526745 644.6787971516826 658.0717727271939 0 0 0
32 1 1 0 680.6256499946628 648.1883898628367 681.2368307899941 0 0 0
6558 1 1 0 645.2301353978414 657.8527251735096 678.0049091520644 1 0 0
34 1 1 0 650.8770765037438 657.7030418020141 665.820988914321 0 0 0
35 1 1 0 662.3923459972866 670.2264288587032 645.2455632347329 0 0 0
36 1 1 0 654.1230407902459 679.0901823039151 644.6818117204175 0 0 0
2664 1 1 0 652.6188549930625 644.2741367975666 663.2453115997199 0 1 0
38 1 1 0 678.0278461187773 646.2782561140007 678.0836780170282 0 0 0
39 1 1 0 650.5791798216243 655.6633386588132 667.1441787643713 0 0 0
40 1 1 0 656.9188448287576 676.1038893286214 646.0687048332813 0 0 0
41 1 1 0 656.0025499519705 675.8657351341676 645.0212275269815 0 0 0
42 1 1 0 648.0189961462119 678.0213880216584 664.688101316262 0 0 0
258 1 1 0 664.2344390582406 652.0973865247345 681.562153666165 0 0 0
44 1 1 0 664.2883983802351 648.893173832764 662.7508155164096 0 0 0
45 1 1 0 644.5960233433931 675.3777400994819 645.6963380366681 0 0 0
46 1 1 0 650.6159527835291 664.6491932264953 661.8114437453611 0 0 0
2455 1 1 0 656.350447189127 664.8574998498556 681.9570206000972 0 0 0
48 1 1 0 660.2071441418786 666.0410875524955 680.6948031443166 0 0 0
1395 1 1 0 644.6308492046544 668.6838313771941 644.2078885951873 0 0 1
50 1 1 0 649.4258679907086 667.9727084816203 662.7070026167908 0 0 0
51 1 1 0 649.3523803200443 662.9411028227859 660.7362271791105 0 0 0
52 1 1 0 660.8695997214227 671.2109852302442 646.7689767474413 0 0 0
53 1 1 0 649.7338704754662 676.65464344811 665.5208096594162 0 0 0
54 1 1 0 648.576298401761 645.9914713074176 668.4845028340995 0 0 0
6507 1 1 0 644.2251776655326 674.8824239199112 667.7783505485949 1 0 0
56 1 1 0 649.5014959310577 666.6067574033599 662.5004104505898 0 0 0
6152 1 1 0 643.8054267968746 672.5061805662383 667.3392082555359 1 0 0
58 1 1 0 680.3914166551064 648.5393772691273 679.9092921765294 0 0 0
59 1 1 0 649.4304903649852 672.2103234871009 663.0212947851907 0 0 0
60 1 1 0 648.4890804083888 657.5075750354112 660.3051220715672 0 0 0
61 1 1 0 679.025308741595 647.2762253992679 678.0284525630925 0 0 0
62 1 1 0 648.8674788325022 660.1758931438733 660.3156227141004 0 0 0
63 1 1 0 650.8160140622499 648.6953622643066 660.1052572905053 0 0 0
1042 1 1 0 681.2193467417796 673.1049537052027 671.9411402997957 0 0 0
4015 1 1 0 671.4891516960943 645.0952657406764 681.5200784743386 0 1 0
66 1 1 0 646.4732656270533 677.3446437336116 668.8446931021108 0 0 0
67 1 1 0 646.7493292033188 676.0794037815219 645.1662144341512 0 0 0
68 1 1 0 673.6311987861765 645.6978904817253 676.570949643199 0 0 0
69 1 1 0 666.9325715505171 647.8891870116923 662.2658058819594 0 0 0
70 1 1 0 645.7316699605225 679.3359092271937 672.6531709835909 0 0 0
71 1 1 0 665.1077429809914 648.4033877787606 663.8104612328765 0 0 0
1051 1 1 0 681.9131294284521 668.9877777366835 671.213184428341 0 0 0
37 1 1 0 681.9498394814125 678.4653635721918 674.6340874073474 0 0 0
74 1 1 0 668.2331690232513 649.6539964215244 644.6576166384399 0 0 0
75 1 1 0 670.0590297153 650.3434073911769 647.7980152869311 0 0 0
76 1 1 0 650.5962202811959 668.623340099636 663.0397896985685 0 0 0
77 1 1 0 651.2812466650588 649.4168009158338 661.2899168317758 0 0 0
1175 1 1 0 644.1707865176647 645.5423417131376 661.3035567285988 0 0 0
385 1 1 0 648.283826028686 645.0189269101688 666.0362147405868 0 0 0
893 1 1 0 650.8653769296457 644.7821513379196 665.2761963294054 0 0 0
81 1 1 0 648.1727259669448 674.3118892374536 663.6886289988913 0 0 0
82 1 1 0 648.1926223185588 664.8274355743686 661.4683214251008 0 0 0
1050 1 1 0 681.7480197600523 670.3957421868736 671.4391515209765 0 0 0
1034 1 1 0 681.3045297078723 676.3815171882636 673.48819011141 0 0 0
522 1 1 0 680.7505305112338 679.0693919661777 674.1475065496252 0 0 0
7660 1 1 0 644.7301243571558 659.1042809125988 680.0829765698882 1 0 0
87 1 1 0 669.1172762425765 645.9650212385948 675.7114541209212 0 0 0
88 1 1 0 645.1088976569422 680.6069977928208 673.2950161596409 0 0 0
1184 1 1 0 667.5605838724401 653.3357201772291 681.1815121654407 0 0 0
90 1 1 0 666.3764523711884 645.1072067314456 680.7589327072707 0 0 0
91 1 1 0 645.605682466177 673.5458141045043 666.4777059902685 0 0 0
1519 1 1 0 653.1266989428208 659.6433427531426 681.5040536418298 0 0 0
93 1 1 0 649.4054329900457 664.1982907588047 661.3369357878421 0 0 0
94 1 1 0 680.4843251677619 645.4921194845833 672.4160084413006 0 0 0
6647 1 1 0 644.2332387078224 660.5302289728505 680.056112814236 1 0 0
232 1 1 0 664.0169259259587 653.2546082629301 680.8449898492331 0 0 0
5822 1 1 0 643.6610003028649 669.769324053898 664.3657724521098 1 0 0
914 1 1 0 657.9464365752383 670.2207211019486 643.8872809534291 0 0 0
99 1 1 0 676.960709807684 645.2667795343432 648.3876091687107 0 0 0
100 1 1 0 675.6185816197819 645.5888488873761 648.2658239324859 0 0 0
101 1 1 0 675.2096040044216 646.3403541745026 647.1820009352235 0 0 0
102 1 1 0 673.8617119300507 646.4043667116739 646.9346106370616 0 0 0
103 1 1 0 673.4355287420973 647.2451422508277 645.9295019401603 0 0 0
104 1 1 0 672.0963248318546 647.4093742657766 645.6345635993015 0 0 0
105 1 1 0 671.6231294152294 648.3471798769287 644.7458425479424 0 0 0
5554 1 1 0 644.1096667490202 680.5183299894105 680.0410411640302 1 0 0
1058 1 1 0 681.2083376145303 666.8807963079142 670.0197485712494 0 0 0
108 1 1 0 681.0186343427924 644.715796656661 649.3529147089421 0 0 0
27 1 1 0 667.660426291652 644.6472369682165 666.0203809445793 0 0 0
3766 1 1 0 651.7351541553162 644.217527206205 662.1190728327716 0 1 0
111 1 1 0 666.9594386871956 645.7604007867434 666.6398035530792 0 0 0
112 1 1 0 649.8836789532453 661.2337358261198 679.6826579800437 0 0 0
6421 1 1 0 644.1210856407614 678.2310178697606 674.0222962692693 1 0 0
114 1 1 0 650.397874777482 658.6313419591296 664.7909930161469 0 0 0
115 1 1 0 652.1129380883974 661.3965416500129 662.7005292786395 0 0 0
116 1 1 0 679.7241073881139 644.8105805085121 648.8640420254027 0 0 0
117 1 1 0 679.2998368358467 645.8598803579282 648.0209703566994 0 0 0
118 1 1 0 681.5117938155042 646.8276079353542 648.1423868750019 0 0 0
119 1 1 0 680.1796181449171 646.8978629323698 647.6617466310357 0 0 0
120 1 1 0 647.5008510212169 658.5085624198003 677.695362474628 0 0 0
121 1 1 0 678.1249856895199 651.4916035798021 645.4513739497279 0 0 0
122 1 1 0 648.0908798075324 647.5568027227528 653.095535084923 0 0 0
123 1 1 0 649.6533476945181 659.7168571297276 677.8093683598087 0 0 0
124 1 1 0 671.0408855084379 645.7236797637402 679.1287296222646 0 0 0
398 1 1 0 651.7471585790066 644.8070917733608 660.8027099392294 0 0 0
126 1 1 0 677.9629442901431 645.9891013731834 647.6609711770699 0 0 0
127 1 1 0 677.5072135702773 646.934307868679 646.7765768999154 0 0 0
128 1 1 0 679.6869837504015 648.0004372041294 646.943621093456 0 0 0
129 1 1 0 678.3870099725511 647.9595648421054 646.4286908815259 0 0 0
130 1 1 0 680.5340505484263 649.0457714480644 646.7075225988805 0 0 0
131 1 1 0 666.3845849960109 645.3205702629447 673.9384681757056 0 0 0
132 1 1 0 651.7361773571923 663.7962477526775 662.0423497746111 0 0 0
133 1 1 0 645.6074546658546 648.2892876029997 645.1060036898857 0 0 0
134 1 1 0 681.4696301500945 646.4182293653886 672.2005071931264 0 0 0
135 1 1 0 647.631112986438 675.6841032074946 664.0721422881488 0 0 0
136 1 1 0 676.1740057911486 646.9710174482964 646.376028849497 0 0 0
137 1 1 0 675.7349314048153 648.0238555292116 645.5755151610398 0 0 0
138 1 1 0 677.9210940883545 649.1432098572907 645.8614921133263 0 0 0
139 1 1 0 676.5957997360797 649.0728947894771 645.332016485438 0 0 0
140 1 1 0 674.0824080022868 645.4386986231177 678.9872385064457 0 0 0
141 1 1 0 650.4112554584251 652.2506950440218 665.6729118358586 0 0 0
142 1 1 0 651.9053518330103 660.7296934595057 678.4114271977235 0 0 0
143 1 1 0 647.2228346226743 647.7979186343325 656.9284550289866 0 0 0
3848 1 1 0 647.3926388836346 645.2150461560954 648.3793836286775 0 1 0
6564 1 1 0 681.8653176558236 647.7886310210021 675.58394632109 0 0 0
146 1 1 0 674.3640663454638 648.1278492516017 645.348273864311 0 0 0
147 1 1 0 673.7937667854446 649.3640722692795 644.8662955706649 0 0 0
148 1 1 0 676.0119399635407 650.3493041598406 645.089874482087 0 0 0
149 1 1 0 674.612378042304 650.4975541575583 645.0487990389463 0 0 0
150 1 1 0 666.746206711618 645.3473061602155 675.2782280696077 0 0 0
151 1 1 0 675.542131135048 680.4381410908554 644.8123426687029 0 0 0
152 1 1 0 659.8108079471358 670.7749089620986 645.9399994116799 0 0 0
153 1 1 0 648.7752487496182 658.8226906366949 677.1704915019325 0 0 0
6538 1 1 0 644.2462997322491 677.5407361675157 671.8684447979309 1 0 0
155 1 1 0 648.2399191901125 666.0180422332741 662.1449442909172 0 0 0
3972 1 1 0 653.8617028548398 644.158019261503 680.8509106835397 0 1 0
407 1 1 0 657.2408948231156 682.3833427365918 650.611020253513 0 0 0
158 1 1 0 674.0054431160878 651.6581328545416 645.5199757461187 0 0 0
159 1 1 0 672.6194971899793 651.5186991201813 645.6884982330405 0 0 0
904 1 1 0 677.6722440022768 681.6714476246344 644.7456407996879 0 0 0
943 1 1 0 674.2925266339644 644.4696292644028 676.3632919250339 0 0 0
162 1 1 0 645.6155172574963 681.397469765089 679.0382491918829 0 0 0
163 1 1 0 648.3079446635973 647.147744876561 654.6620873356184 0 0 0
164 1 1 0 651.5400543336157 662.3714624073395 661.8221378721653 0 0 0
953 1 1 0 667.1474279828078 651.8381920327116 680.9420806581869 0 0 0
908 1 1 0 664.0533316119166 650.7834624252254 680.9905121992108 0 0 0
167 1 1 0 659.760423339545 664.7017880576652 680.7357896098271 0 0 0
168 1 1 0 645.635105777701 646.1806651249351 663.1195883834484 0 0 0
169 1 1 0 674.704301552612 652.8782502518822 645.4650907711946 0 0 0
874 1 1 0 681.6404388946851 661.3598818146305 666.1399337386918 0 0 0
432 1 1 0 662.2239208847886 667.3187513217548 680.4511077227543 0 0 0
1070 1 1 0 660.0283511311138 644.5805070140374 661.4781625832902 0 0 0
2756 1 1 0 650.3647670084272 644.1816852635603 658.7914813699705 0 1 0
174 1 1 0 674.0907352579891 654.139923122888 645.6860368587622 0 0 0
175 1 1 0 652.6293816898697 649.7915400882688 661.5880776067254 0 0 0
176 1 1 0 663.6676081954805 644.9114496211074 661.0214201725246 0 0 0
177 1 1 0 648.0200732420903 646.4190800131266 646.0821544910617 0 0 0
178 1 1 0 665.5788534925084 647.7675904954139 666.1311135449491 0 0 0
179 1 1 0 652.6187500112298 659.1116617352294 664.0485225191595 0 0 0
951 1 1 0 681.5321425119222 681.2276426600118 671.642979964264 0 0 0
181 1 1 0 648.1618447476991 670.1005699218398 662.7762501346143 0 0 0
182 1 1 0 644.9190121522338 647.499747600194 657.6825703514241 0 0 0
1136 1 1 0 664.9629885674932 673.0185176585604 681.3570717839432 0 0 0
184 1 1 0 671.2906656713262 647.2097704033242 677.11779335343 0 0 0
185 1 1 0 648.108186359248 648.8921346498286 663.1171516646922 0 0 0
1326 1 1 0 646.3049159717771 670.3859903339774 644.4318661682767 0 0 1
1493 1 1 0 666.0481070026336 648.4161816764164 682.3125083746573 0 0 0
188 1 1 0 648.4323563886683 649.1063190707898 660.7230554598829 0 0 0
189 1 1 0 666.8053636704299 646.7019716304951 664.3936331146654 0 0 0
190 1 1 0 651.8345140497638 666.5108403131616 662.9098973073326 0 0 0
191 1 1 0 666.4664447336852 646.7438056610981 665.7774396906414 0 0 0
192 1 1 0 667.7096965023746 645.6072923216683 662.4373447344296 0 0 0
193 1 1 0 648.9134750542319 649.3507700909729 662.0371585989157 0 0 0
194 1 1 0 667.6079451519212 646.7839008907815 661.6976951390482 0 0 0
195 1 1 0 646.9654384283748 672.1620697059667 663.2870166546256 0 0 0
196 1 1 0 651.89962079729 662.2552500817367 680.2076906155896 0 0 0
197 1 1 0 648.2979655211226 647.4098595591398 656.1724487665858 0 0 0
198 1 1 0 649.2718096028467 679.7575183359803 670.5192558470494 0 0 0
199 1 1 0 667.477531758996 645.6276378635846 663.8420402912749 0 0 0
5344 1 1 0 644.1670461276918 676.0054000876363 669.9582925737976 1 0 0
944 1 1 0 674.8620482909174 682.0582025039818 649.1783069186631 0 0 0
202 1 1 0 679.8116616277937 645.4467389807473 673.6616328651947 0 0 0
203 1 1 0 646.8382912726576 648.2805431788435 662.8566130695195 0 0 0
204 1 1 0 650.8704363143124 677.2846611266176 667.5451875139478 0 0 0
205 1 1 0 673.2715506477681 646.0029304875205 677.8922514230577 0 0 0
206 1 1 0 646.4323442327205 647.1997695825257 663.677739276958 0 0 0
207 1 1 0 649.3070562705863 646.6225112212512 656.8161670994058 0 0 0
208 1 1 0 671.5670055988037 646.7525238637623 675.775550705693 0 0 0
209 1 1 0 674.7444403252566 677.7463293316946 644.6587142975152 0 0 0
210 1 1 0 650.40928832605 646.4354719319876 659.2333788570502 0 0 0
211 1 1 0 653.9897125677803 680.3108870528872 645.3882930850472 0 0 0
212 1 1 0 647.0399815547623 648.9079855779872 660.4951278821951 0 0 0
213 1 1 0 646.561556878084 648.4846101706336 659.2229599654551 0 0 0
214 1 1 0 645.0804881173925 647.7354237374799 661.2956319833107 0 0 0
215 1 1 0 657.6581302839658 644.9096641542733 661.2827374860444 0 0 0
6426 1 1 0 644.616600352991 667.9004598906031 663.2452483635259 1 0 0
217 1 1 0 653.3281139934378 660.6086976112398 678.7193428312178 0 0 0
218 1 1 0 653.0303525973892 665.7695256926612 662.9456357464633 0 0 0
219 1 1 0 649.2643531330294 656.6273064380775 663.685753105224 0 0 0
349 1 1 0 646.1124190978729 644.8341324875527 663.1407980446825 0 0 0
221 1 1 0 652.9647547680022 664.4179366548884 662.4674092518256 0 0 0
47 1 1 0 678.7222180204392 645.1286104107766 676.1805362083073 0 0 0
223 1 1 0 679.9968811776247 650.2299160191332 646.1385853903462 0 0 0
3298 1 1 0 648.8629039248924 644.6276138085673 644.1861490901932 0 1 0
225 1 1 0 650.3712835134457 654.5433370960534 664.5528086530541 0 0 0
226 1 1 0 653.5868713578882 660.7932098378549 662.6035215829578 0 0 0
1186 1 1 0 653.8018879665026 676.2619576283495 644.1704969376858 0 0 0
962 1 1 0 670.5446300500432 651.5037265538093 644.41074459319 0 0 0
229 1 1 0 649.3244366861802 656.940398211814 661.3008639303962 0 0 0
1530 1 1 0 644.9001447189706 661.3391550155735 678.9987115452591 0 0 0
519 1 1 0 646.6993998763633 682.0029453449913 675.7387402455673 0 0 0
6560 1 1 0 644.7589300728282 670.5822122477829 664.3021092691824 1 0 0
233 1 1 0 676.7976366622244 654.0339263113109 645.0186023762272 0 0 0
234 1 1 0 650.4931104153994 657.7381946006217 661.5278398337907 0 0 0
235 1 1 0 658.7632678966653 671.6876963685335 645.6922077867912 0 0 0
236 1 1 0 654.0276234940488 667.6806391369627 664.0238410971655 0 0 0
237 1 1 0 650.2982898773179 662.0041449804861 661.1449001553833 0 0 0
238 1 1 0 666.4239023346607 645.6969133288575 676.6032335588085 0 0 0
239 1 1 0 654.7506810129349 680.4184639083754 646.6531002381828 0 0 0
240 1 1 0 651.3715234385011 659.6192067970287 664.3896433215407 0 0 0
6143 1 1 0 681.9496186515149 648.2728929508348 678.0287045571965 0 0 0
242 1 1 0 659.9730291959721 646.2645900759846 680.2416227988526 0 0 0
243 1 1 0 647.5583181887359 646.6045503764575 644.7012726381734 0 0 0
244 1 1 0 649.9062695349119 658.6770705582368 662.5178020550604 0 0 0
245 1 1 0 650.0979282977087 660.0344100176952 662.429692556843 0 0 0
246 1 1 0 657.9001070571907 673.9307200585642 645.887504607598 0 0 0
13 1 1 0 645.2383925592442 679.9860083870676 679.1926573236159 0 0 0
248 1 1 0 650.2176674651442 680.037355811118 667.1064052343211 0 0 0
1317 1 1 0 647.7014836794685 670.8455218646894 644.1628552642142 0 0 1
250 1 1 0 647.8517663727923 677.373791639136 668.1185888564064 0 0 0
251 1 1 0 657.793894639684 675.1518169281951 646.587392532721 0 0 0
252 1 1 0 663.5139357312514 670.6319104610579 644.583229813206 0 0 0
253 1 1 0 661.3296609348113 645.1087509735274 661.5812849794294 0 0 0
20 1 1 0 649.6108539291979 645.4857374932807 655.9693837487297 0 0 0
255 1 1 0 644.8814604982294 646.5385397231659 662.0018116312982 0 0 0
228 1 1 0 644.9693197337767 678.2265710570384 672.8840141231968 0 0 0
1318 1 1 0 645.9647518299467 669.0276932197617 644.2025210335689 0 0 1
264 1 1 0 644.985716749334 671.9357089431984 664.8460322836589 0 0 0
259 1 1 0 651.065385426725 659.8664624068746 677.6878741992465 0 0 0
2453 1 1 0 655.6719814180897 663.510214644392 681.3774120150243 0 0 0
261 1 1 0 667.1749602330885 675.878338619429 678.1474471022162 0 0 0
262 1 1 0 647.0746939605077 646.21547318654 647.093980354736 0 0 0
263 1 1 0 666.4145931288172 648.6760964715363 660.1029854748818 0 0 0
231 1 1 0 649.1046143295142 645.0903433788756 669.4309623370168 0 0 0
265 1 1 0 646.3266560509201 679.586408924175 664.0813035070867 0 0 0
266 1 1 0 668.5351655719675 681.1807756236399 653.3541127426655 0 0 0
267 1 1 0 669.7060467328218 679.0625026141962 653.179087817134 0 0 0
268 1 1 0 668.5509409386334 679.8459217428315 653.1337035555462 0 0 0
269 1 1 0 669.8477781574513 677.7309854057146 652.7359348262153 0 0 0
270 1 1 0 668.5887260806088 677.0738323282136 652.7171266125011 0 0 0
271 1 1 0 669.7687359650171 674.900820486674 652.6190237892298 0 0 0
272 1 1 0 668.5665835515011 675.6676001181515 652.4815016309706 0 0 0
273 1 1 0 669.8819746887872 673.7032208174029 651.8404798030541 0 0 0
274 1 1 0 668.7953935418748 673.3269250488933 651.0164927953066 0 0 0
275 1 1 0 670.1253504071464 673.0640780434084 649.0313868504239 0 0 0
276 1 1 0 668.9806440468619 672.7173481123756 649.7683750642844 0 0 0
277 1 1 0 670.1129506614145 673.3441085573401 647.6666256436536 0 0 0
278 1 1 0 668.9248278901335 673.1585304334186 646.9817000155083 0 0 0
279 1 1 0 666.1028194576011 673.783486595396 678.9734125652228 0 0 0
280 1 1 0 668.9502266093823 673.2629454338212 645.5983406160736 0 0 0
3940 1 1 0 651.4824762459638 644.3340961130056 647.4266845277898 0 1 0
282 1 1 0 645.5564297688743 677.0594809549402 666.5999821893153 0 0 0
283 1 1 0 667.3351880536201 679.1049990665266 653.218828428725 0 0 0
284 1 1 0 667.3391314702553 677.8097808059363 652.7378746818406 0 0 0
285 1 1 0 666.1379567891263 677.1786999446518 652.310403172884 0 0 0
286 1 1 0 667.3946987390691 675.1319961616174 651.9237074056127 0 0 0
287 1 1 0 666.194082073784 675.90720181289 651.8465222035763 0 0 0
288 1 1 0 667.4948477050199 673.9137773556454 651.2297872335764 0 0 0
289 1 1 0 666.3118759632873 673.4628165403254 650.5381583060688 0 0 0
290 1 1 0 667.8225322831686 672.3897896465174 648.9656443453989 0 0 0
291 1 1 0 666.5281500346366 672.5105717915712 649.5125957060424 0 0 0
292 1 1 0 667.9774854759773 672.3740551798501 647.5769903904944 0 0 0
293 1 1 0 667.010788040875 671.5954988406257 646.7828874205367 0 0 0
109 1 1 0 672.9977008417511 645.267261959972 674.2693842591135 0 0 0
295 1 1 0 666.7634362216377 672.1857546470541 645.3817147164112 0 0 0
296 1 1 0 647.062421848306 680.7864005706392 664.6301134591533 0 0 0
297 1 1 0 646.6221039924596 678.3754044536158 664.7251841615634 0 0 0
298 1 1 0 664.949431212047 677.879015539284 652.4222102685184 0 0 0
299 1 1 0 664.9866026739118 675.3334875255814 651.3181122678441 0 0 0
300 1 1 0 665.0405804433229 674.0572235570345 650.6448128880156 0 0 0
301 1 1 0 665.4187222948862 672.2269869409399 648.6270179274322 0 0 0
302 1 1 0 665.6220267408806 671.5277299915209 647.451656551852 0 0 0
5363 1 1 0 644.168981221221 682.0981365113937 674.9394259287567 1 0 0
4008 1 1 0 649.1567843888662 644.6509197182769 660.9007015324751 0 1 0
305 1 1 0 663.7549595026318 677.3212308800274 651.864585590733 0 0 0
306 1 1 0 663.7642086697392 676.019422632903 651.3082464778893 0 0 0
307 1 1 0 663.9188715622315 673.655249086562 649.9405704157826 0 0 0
308 1 1 0 664.1410842425759 672.6908466239722 648.9388386954827 0 0 0
309 1 1 0 664.5733701052877 671.1084628583085 646.7330412347878 0 0 0
310 1 1 0 664.7816903031572 670.6959748112644 645.2949396662635 0 0 0
463 1 1 0 673.2905603792913 682.1366172554499 650.8907567635836 0 0 0
312 1 1 0 662.6333903054293 675.570610313469 650.6609098712222 0 0 0
313 1 1 0 662.7096365870804 674.3253744194042 650.015553581604 0 0 0
314 1 1 0 661.7233029587853 674.014861217301 649.0503383471538 0 0 0
315 1 1 0 663.0476721994299 672.2532972112161 648.1981688239047 0 0 0
316 1 1 0 661.8094379336924 672.8461903569624 648.2688660264347 0 0 0
317 1 1 0 663.2497693578389 671.2232193912356 647.2679329573845 0 0 0
318 1 1 0 662.1470658769713 670.6104297008674 646.5483015112408 0 0 0
156 1 1 0 672.4218540385116 649.4956858848295 644.5632012054176 0 0 0
320 1 1 0 670.2228252785894 646.8773028182399 679.7459703358562 0 0 0
110 1 1 0 681.946159516539 645.6871366057549 648.9058587500213 0 0 0
201 1 1 0 670.6250213645022 644.5561223290596 656.8366710153749 0 0 0
323 1 1 0 660.5294182623145 674.8167762908917 648.9593042913948 0 0 0
324 1 1 0 659.5145791939073 674.4288471586802 648.0975282744757 0 0 0
325 1 1 0 660.7491964998276 672.3866582307463 647.5278821986683 0 0 0
326 1 1 0 659.6769223495307 673.2563284235391 647.3381367259991 0 0 0
327 1 1 0 677.5640353036729 680.576275254688 670.6435178316303 0 0 0
328 1 1 0 649.5898736965654 658.0286760216188 663.7641472545789 0 0 0
329 1 1 0 645.2163303799589 648.0154880867035 658.9398315264949 0 0 0
330 1 1 0 667.4346341710719 646.5815889744833 660.2012449936354 0 0 0
331 1 1 0 646.9850033070884 680.963736344271 674.6346347696219 0 0 0
332 1 1 0 670.2250038783446 673.6952717070247 645.0573958526809 0 0 0
333 1 1 0 658.6089915713676 675.4150228815273 647.6883027850475 0 0 0
334 1 1 0 649.7121624870915 655.8150622496642 664.8551290465164 0 0 0
335 1 1 0 671.6880673067619 652.2105883688207 646.6947899232304 0 0 0
336 1 1 0 645.4407703903948 647.8146876677292 646.4168279231549 0 0 0
337 1 1 0 651.8079380257111 667.902160682939 663.2150406726616 0 0 0
338 1 1 0 681.1872429472481 647.8216336357115 676.8279243758448 0 0 0
339 1 1 0 646.0930665963485 647.1973428197085 647.479789993275 0 0 0
2147 1 1 0 651.3714108666381 662.3068133117728 681.5125347882866 0 0 0
340 1 1 0 659.9893555571786 669.66526338085 645.0401621257994 0 0 0
342 1 1 0 650.6018566469996 670.0550964851532 663.1442128461244 0 0 0
343 1 1 0 645.8555141999856 647.0325301646906 648.9218356922453 0 0 0
344 1 1 0 668.7040683474542 676.7344511527773 676.4724159775747 0 0 0
227 1 1 0 650.4310234146672 682.2369295806986 672.9603828161049 0 0 0
346 1 1 0 667.484622834094 647.9131594383199 659.5212167457757 0 0 0
347 1 1 0 668.2896266407245 647.9216024325406 658.380157606474 0 0 0
6376 1 1 0 644.5736967546239 666.5666849947975 662.7933608698964 1 0 0
377 1 1 0 667.0245672650829 650.2273359246225 644.154415232637 0 0 0
350 1 1 0 651.8708424766526 655.0888779485492 666.9096595000866 0 0 0
351 1 1 0 669.2598849064617 647.0336184365625 657.9302893399243 0 0 0
352 1 1 0 665.843119650022 650.0528984087633 661.994639438084 0 0 0
353 1 1 0 649.3737498172226 648.80213686901 659.7224329561332 0 0 0
354 1 1 0 648.6938363538685 658.8334921418765 659.9453178614008 0 0 0
355 1 1 0 646.2512775988861 673.9618893683146 664.5992433798514 0 0 0
865 1 1 0 681.630448224874 658.6131778272583 662.7140259003951 0 0 0
357 1 1 0 668.8877610665593 650.0875572339081 645.7775259574986 0 0 0
358 1 1 0 652.2244012840621 657.398758869318 665.8962062720384 0 0 0
359 1 1 0 648.2302081771019 668.7094238327599 662.7329892528843 0 0 0
360 1 1 0 652.0535507257225 653.7592705898257 666.2425488751552 0 0 0
361 1 1 0 680.9370911046016 653.7621976799024 645.6108973244108 0 0 0
80 1 1 0 655.9096738647739 674.5586575220957 644.573371516318 0 0 0
363 1 1 0 671.9380631077424 646.4524763559356 678.0961962121016 0 0 0
364 1 1 0 648.464435585969 678.6339602408378 670.1853019925456 0 0 0
365 1 1 0 650.3702098506751 677.7641046411248 666.2595699559325 0 0 0
366 1 1 0 676.729850432927 651.5630860416935 645.2830198842388 0 0 0
367 1 1 0 669.7371247160311 651.2299872799978 645.665557634414 0 0 0
368 1 1 0 650.8163586930755 653.5660762900211 665.4549413993301 0 0 0
369 1 1 0 662.9226194690851 648.3531275383078 662.607513034113 0 0 0
2669 1 1 0 644.0672484001536 646.18144694862 655.9356961383678 0 1 0
371 1 1 0 667.3161252695235 681.7227181908733 653.9638998792383 0 0 0
372 1 1 0 666.1192842301218 679.7870639510559 653.4386275604419 0 0 0
373 1 1 0 664.94984852331 679.1864829793174 653.0052604593358 0 0 0
374 1 1 0 661.5464662616706 676.4492350813349 650.4652602514043 0 0 0
375 1 1 0 660.5239066636481 676.0833370525885 649.5698632387696 0 0 0
376 1 1 0 678.6562188234963 650.2836813365024 645.8482847368394 0 0 0
113 1 1 0 681.5012191255506 681.2679768502666 674.9273916662016 0 0 0
3850 1 1 0 650.0145302721663 645.1273783171159 652.0440626627311 0 1 0
379 1 1 0 648.5095128483753 646.2494026114792 667.1393383015572 0 0 0
380 1 1 0 672.383256816309 675.0024655000088 645.1475206461121 0 0 0
651 1 1 0 662.6051190510425 661.2280531778455 681.0912911995673 0 0 0
382 1 1 0 666.1229784455087 681.1286328173607 653.7461451136103 0 0 0
1814 1 1 0 678.186204373751 656.1079259275226 644.2648102512406 0 0 1
384 1 1 0 664.9062983326202 681.9158737297299 653.8867354453764 0 0 0
2390 1 1 0 674.7239219410558 655.2805151669629 644.974406487125 0 0 1
386 1 1 0 663.7525910323118 681.1933952499144 653.460275581856 0 0 0
387 1 1 0 663.7984553121929 679.9734800792843 652.8492438846266 0 0 0
388 1 1 0 653.108617926793 681.4053505469096 644.9910626549765 0 0 0
389 1 1 0 647.9425308588217 680.5176555206642 672.449642139015 0 0 0
390 1 1 0 662.5073721145153 681.8897378200583 653.5609139552264 0 0 0
391 1 1 0 661.3812182570025 681.2885687470559 652.9826577129469 0 0 0
392 1 1 0 662.675777170899 679.4066012047407 652.3237314781676 0 0 0
393 1 1 0 661.4547704749781 680.0638895160628 652.3236435841593 0 0 0
394 1 1 0 662.6297133088677 678.1258563966576 651.8324382810089 0 0 0
395 1 1 0 661.4662674623298 677.6546806397532 651.1715016834402 0 0 0
396 1 1 0 646.9671855711227 673.6740936725049 665.987036429368 0 0 0
652 1 1 0 653.3930426634965 660.2938783138924 680.3026734679756 0 0 0
1528 1 1 0 645.96190293633 662.1716223393471 679.342029335901 0 0 0
399 1 1 0 659.3013624092794 681.7605576383135 651.7827790775063 0 0 0
400 1 1 0 660.3588453440027 679.7057549818094 651.4913545027988 0 0 0
401 1 1 0 659.2824006069159 680.5013074368402 651.2230678740106 0 0 0
402 1 1 0 660.4294291986849 678.4801057272412 650.8609476410745 0 0 0
403 1 1 0 659.4929910688887 678.1588388424386 649.8477315900366 0 0 0
404 1 1 0 659.4913751403125 676.9109301895688 649.2283545903497 0 0 0
405 1 1 0 645.4409535656416 659.4078689358969 678.6058179727002 0 0 0
406 1 1 0 678.4905267118842 681.3182877501993 671.3966160418128 0 0 0
2879 1 1 0 648.5214557901685 644.6496480182612 670.6293861429319 0 1 0
408 1 1 0 658.3944546013629 680.2913596775824 650.2307931121525 0 0 0
409 1 1 0 657.3172262099713 681.1972899240784 649.9502291644858 0 0 0
410 1 1 0 658.4134110270498 679.0749122919115 649.5674621750301 0 0 0
411 1 1 0 657.4888702027437 678.7402268023329 648.5580396279533 0 0 0
412 1 1 0 658.4819200379541 676.5713343839201 648.3555647187367 0 0 0
413 1 1 0 657.5388986125367 677.5301208645947 647.8971730727691 0 0 0
414 1 1 0 656.3795444932258 680.8549486814925 648.9307006924156 0 0 0
415 1 1 0 655.3693222708325 681.7649698465182 648.6004068542426 0 0 0
416 1 1 0 656.4950885360529 679.684495117896 648.2443930813963 0 0 0
417 1 1 0 655.6984599505057 679.4222626741689 647.1043914988657 0 0 0
418 1 1 0 664.9313310475883 648.525118850803 665.2079712016133 0 0 0
419 1 1 0 671.4991371513289 676.4315717765057 673.5326731550117 0 0 0
420 1 1 0 648.7169503267506 681.6245273012694 666.1816253072546 0 0 0
421 1 1 0 647.1536641845676 678.5249365990785 670.8519905971144 0 0 0
422 1 1 0 654.5499540453466 681.4999678305346 647.5303587261078 0 0 0
423 1 1 0 650.4029420613934 647.726295952244 666.3092797040094 0 0 0
424 1 1 0 650.6627789271604 665.8823783874042 662.4540029675624 0 0 0
425 1 1 0 670.1906986626452 650.0167047598881 649.1560303572307 0 0 0
426 1 1 0 653.1745546243585 658.0245016834299 664.9182698509086 0 0 0