LAMMPS data file via write_data, version 2 Aug 2023, timestep = 50000, units = metal

14672 atoms
1 atom types

632.7496259050027 731.4303740950071 xlo xhi
633.1964236993709 731.6925763006287 ylo yhi
633.2386073486998 731.6503926512999 zlo zhi

Masses

1 12.0107

Atoms # full

1 1 1 0 637.0039840471385 649.2015726592098 647.9419179536781 0 0 0
2 1 1 0 637.1132297798432 649.4582320557653 649.3021968516462 0 0 0
3 1 1 0 638.361813488388 649.1570033919452 649.9458213629317 0 0 0
4 1 1 0 635.9963340247585 649.5972659088336 650.228258150011 0 0 0
5 1 1 0 640.6865725236555 648.3260192549803 651.4663005481691 0 0 0
6 1 1 0 640.7270533619877 649.0353363638576 650.23155694198 0 0 0
7 1 1 0 639.6630109316288 649.7278499236666 649.5867282578635 0 0 0
8 1 1 0 641.3632721388345 648.8739763632501 652.6629456050229 0 0 0
9 1 1 0 642.0044325707888 650.1754177133125 652.9094326419296 0 0 0
10 1 1 0 635.4516025697146 649.1750409651195 652.8076128589154 0 0 0
11 1 1 0 635.9673393952602 648.9172459763213 651.4959227164678 0 0 0
12 1 1 0 637.0239213349647 647.9438746025862 651.5401944899473 0 0 0
13 1 1 0 634.2942422774823 647.8685260820109 654.9185513790924 0 0 0
14 1 1 0 633.4581064666837 646.6845694986993 655.0684141145539 0 0 0
15 1 1 0 634.9432315239452 648.040458803536 653.5400175490988 0 0 0
16 1 1 0 636.748647403386 646.9369504701825 652.4623344408164 0 0 0
17 1 1 0 635.1419194476076 645.6119939893102 653.7472524278168 0 0 0
18 1 1 0 635.5005779991081 646.8123291028476 653.0659210906216 0 0 0
19 1 1 0 638.3170017403618 648.2395488720126 651.0355919421546 0 0 0
20 1 1 0 639.6232920486575 647.5615269571447 654.1275529362523 0 0 0
21 1 1 0 639.1388186676134 646.9239187282931 652.8966544009014 0 0 0
22 1 1 0 639.418585762022 647.6643445283369 651.7019112183033 0 0 0
23 1 1 0 640.3579427470479 648.7688571126358 653.7490846761582 0 0 0
24 1 1 0 638.5851104217327 647.6235630305165 655.0637738653447 0 0 0
25 1 1 0 637.840149090149 646.2146774976989 653.0381237734838 0 0 0
26 1 1 0 637.743422299305 646.5467720741602 655.4841865329671 0 0 0
27 1 1 0 637.4513825661958 645.6574922994885 654.4164188010552 0 0 0
28 1 1 0 636.1662154549703 645.0479466511861 654.5216188453223 0 0 0
29 1 1 0 636.6008933820563 646.792010466529 656.3959981302698 0 0 0
30 1 1 0 642.6781944493399 650.3860667011587 635.9324093042483 0 0 0
31 1 1 0 643.3110848752697 648.0763285212981 634.8042953295371 0 0 0
32 1 1 0 642.5071162993831 651.1389230695145 634.6949958994294 0 0 0
33 1 1 0 641.4560283282703 651.1565803313151 653.8771511320897 0 0 0
34 1 1 0 634.5410717409864 643.8068007620998 655.9154543879791 0 0 0
35 1 1 0 633.4955274264789 644.3008332726807 654.9822296873875 0 0 0
36 1 1 0 633.8212091031261 645.5361747916131 654.2927793575553 0 0 0
37 1 1 0 635.7079396071354 645.7531353113657 656.7103349048557 0 0 0
38 1 1 0 635.680937293824 644.669658628123 655.8220283650547 0 0 0
39 1 1 0 641.8388177984136 650.5561929770896 637.1858248961187 0 0 0
40 1 1 0 653.2156135663075 654.7746362757575 655.477418164138 0 0 0
41 1 1 0 638.5326064187324 653.432565279639 639.8993139049303 0 0 0
42 1 1 0 639.6998868831607 653.1560586713978 640.942270907697 0 0 0
43 1 1 0 637.8283069015732 652.3324545078458 640.7139113901861 0 0 0
44 1 1 0 640.1767841341853 651.7379018427168 640.3552511153986 0 0 0
45 1 1 0 638.8294022908051 651.3396676270235 641.0313131117663 0 0 0
46 1 1 0 636.9319911681478 652.623202740995 641.8047743805038 0 0 0
47 1 1 0 650.9320021614851 652.2219229649362 656.8773089587627 0 0 0
48 1 1 0 652.1631836640463 654.1950825447914 656.1189987348014 0 0 0
49 1 1 0 638.9052624256132 653.6232175371467 644.8324144216516 0 0 0
50 1 1 0 638.5273958320824 653.3954431872854 643.4531725478452 0 0 0
51 1 1 0 639.9720689303937 651.8179831047128 643.0395625574588 0 0 0
52 1 1 0 639.6804098242916 653.1945308519477 642.3550006689862 0 0 0
53 1 1 0 637.778995843738 650.9306029226706 643.3564988410695 0 0 0
54 1 1 0 638.9830634816602 650.9589597575037 642.4159059024807 0 0 0
55 1 1 0 637.4485199726196 652.439055750375 643.1166957878777 0 0 0
56 1 1 0 641.6314995389406 651.3742508083329 638.2775554262845 0 0 0
57 1 1 0 640.4820435149945 651.6186758539023 639.0257357243808 0 0 0
58 1 1 0 658.1893779142654 652.6023058364059 656.3628462408028 0 0 0
59 1 1 0 661.1537209612143 655.0797708110151 658.7765328508762 0 0 0
60 1 1 0 662.7017274481095 653.6664145959379 657.1537199729847 0 0 0
61 1 1 0 662.127130738413 652.3078974182965 656.4904992188706 0 0 0
62 1 1 0 659.4515077609333 652.0456485223681 656.7390995951957 0 0 0
63 1 1 0 663.1410005377805 652.1642528441023 655.3738240403976 0 0 0
64 1 1 0 662.7939744015491 652.4655749869855 654.0761593956789 0 0 0
65 1 1 0 661.4540613582079 654.3656427788577 657.6493673514751 0 0 0
66 1 1 0 661.5263686269798 652.633682079817 653.5734360541453 0 0 0
67 1 1 0 660.6462711985795 652.3163431858478 655.9379390222135 0 0 0
68 1 1 0 659.0524605051435 657.2993867875251 655.1827286435758 0 0 0
69 1 1 0 659.561413843652 656.1995028640794 654.3785993966347 0 0 0
70 1 1 0 658.7803705114272 655.1428581820586 653.8763275792875 0 0 0
71 1 1 0 657.4517101394973 655.3858184167416 653.4639948946455 0 0 0
72 1 1 0 660.8577613057261 655.7162913795736 654.7634219551618 0 0 0
73 1 1 0 658.9149631799722 653.7768347966576 654.425061272158 0 0 0
74 1 1 0 660.738167835962 654.4445364706593 655.3046073844067 0 0 0
75 1 1 0 660.4210277929678 653.097751949013 654.6502528090645 0 0 0
76 1 1 0 660.4780939035172 654.5048838475076 656.6672699285945 0 0 0
77 1 1 0 659.2383555429818 654.873927187251 657.3479862440834 0 0 0
78 1 1 0 661.7443784393305 656.5864611885416 655.4033801105272 0 0 0
79 1 1 0 659.1952271972164 656.5858006345524 659.0816213049077 0 0 0
80 1 1 0 660.7956261379959 657.7296454996784 660.8943084377274 0 0 0
81 1 1 0 656.5166920529446 655.2781413314743 654.4586513641704 0 0 0
82 1 1 0 655.9125296716903 657.7617229808883 657.0366083226763 0 0 0
83 1 1 0 657.6633840896823 657.3180835974774 655.4905574481874 0 0 0
84 1 1 0 657.1646019958206 658.2052665654032 656.51573575413 0 0 0
85 1 1 0 659.9609956737636 657.9671674029433 656.128132960251 0 0 0
86 1 1 0 659.7699674317157 657.9014632690094 659.7444479847258 0 0 0
87 1 1 0 659.5026607610062 658.7058321253205 657.2627879335944 0 0 0
88 1 1 0 658.4789299648849 657.586519158205 660.7691666692783 0 0 0
89 1 1 0 660.2135222551326 659.00403774003 658.6940306248683 0 0 0
90 1 1 0 657.1079986100882 657.6091963025578 659.9737407223366 0 0 0
91 1 1 0 658.1099008232151 658.9049153615781 657.2168908623818 0 0 0
92 1 1 0 655.6277634803325 656.517322041075 656.4692530922148 0 0 0
93 1 1 0 654.5106903462365 654.7285187282976 655.9340739368685 0 0 0
94 1 1 0 659.8753859254562 655.58310013113 658.4884569647156 0 0 0
287 1 1 0 645.2258735994193 676.2549399732118 634.1913934196871 0 0 0
96 1 1 0 640.2591847190184 652.3414660801318 646.6537189802227 0 0 0
97 1 1 0 639.8991198362121 650.6437577788294 648.5256055105342 0 0 0
98 1 1 0 640.0444706859016 651.0530636048868 647.1921666437103 0 0 0
99 1 1 0 638.9873721110582 648.9453079062263 646.7009207977416 0 0 0
100 1 1 0 639.7382632443176 650.0320267979142 646.2789268747614 0 0 0
101 1 1 0 639.8838976291856 652.7029868892778 645.3423824293161 0 0 0
102 1 1 0 640.0903316275288 651.6245509684036 644.4190389620749 0 0 0
103 1 1 0 639.4295423456834 650.4571602448292 644.9763088077758 0 0 0
104 1 1 0 638.0855497149669 650.2635864951944 644.5423522647933 0 0 0
105 1 1 0 637.1903319091251 649.588850242651 645.4012970228897 0 0 0
106 1 1 0 637.5887372797906 649.1197830244122 646.6637363713975 0 0 0
107 1 1 0 638.5937923438214 661.2174540350362 635.4215626894692 0 0 0
108 1 1 0 637.6590495030727 660.1434971013829 635.5832662165367 0 0 0
109 1 1 0 640.1923210840774 663.0516894950205 635.1301480597572 0 0 0
2106 1 1 0 680.4107368622424 673.2589852407139 654.8186010694916 0 0 0
111 1 1 0 638.8041577322813 663.1951562644708 637.175994228139 0 0 0
112 1 1 0 639.2411653152265 662.398609612101 636.1272622890835 0 0 0
113 1 1 0 649.501759466293 652.5513709304447 656.3543407555418 0 0 0
114 1 1 0 649.0242243325907 653.8677386717665 656.6314385690799 0 0 0
115 1 1 0 647.2744682978898 652.7530021046273 659.6810966245263 0 0 0
116 1 1 0 647.6939623246484 654.0792581189384 657.2013026207994 0 0 0
117 1 1 0 646.8251768773266 652.9689585095738 657.3406690379393 0 0 0
118 1 1 0 646.8050386520308 653.5988398629366 660.7263148007888 0 0 0
119 1 1 0 646.451649889441 655.2214363605208 660.3312479040712 0 0 0
120 1 1 0 646.2936313531826 652.7721969902311 658.6469009289941 0 0 0
121 1 1 0 645.5793593124555 653.2027588142028 661.405662437558 0 0 0
122 1 1 0 647.4613159018772 655.315531628888 661.4963397298995 0 0 0
123 1 1 0 645.663271901966 654.2373121121412 662.5135445362401 0 0 0
124 1 1 0 647.299655388863 655.2270866945454 658.0852324486506 0 0 0
125 1 1 0 647.0354041986773 654.6144714143533 662.6737241551608 0 0 0
126 1 1 0 648.6407214188863 655.9837664892422 661.2139637062844 0 0 0
127 1 1 0 648.564175633609 651.5164961244311 656.8755139011381 0 0 0
128 1 1 0 647.2581674670715 651.8649012595375 656.6243405123811 0 0 0
129 1 1 0 648.7093330690425 652.414857441651 659.453269433637 0 0 0
130 1 1 0 649.1374712850512 651.4754737590284 658.3136115609587 0 0 0
131 1 1 0 651.3811993081214 654.9771250858252 657.0335777190878 0 0 0
132 1 1 0 652.1864441255469 655.6624865717951 658.0091514607825 0 0 0
133 1 1 0 649.9777180430614 654.7499117368458 657.2213415992626 0 0 0
134 1 1 0 648.4222450155088 655.9062176518862 658.7582399458335 0 0 0
135 1 1 0 648.7085098046572 656.7252130243539 659.9205019613189 0 0 0
136 1 1 0 651.5780337410129 656.9915741742657 661.826385723072 0 0 0
137 1 1 0 651.4950392268402 655.9101651385574 659.3193738604914 0 0 0
138 1 1 0 650.5404942549536 656.0522279521135 662.6123549904663 0 0 0
139 1 1 0 650.4934433159964 655.0000843835176 659.506756832481 0 0 0
140 1 1 0 649.5736062772544 655.1790773386009 658.5103885254507 0 0 0
141 1 1 0 649.8197338963753 657.6389220609848 659.876833047938 0 0 0
142 1 1 0 652.3963329999002 655.5406235037464 661.8367355298412 0 0 0
143 1 1 0 649.80059660205 655.3427619574838 661.6907746277268 0 0 0
144 1 1 0 650.4424909863429 654.3338688089112 660.8386248919178 0 0 0
145 1 1 0 653.5954173720438 655.8351955933979 658.0433330735589 0 0 0
146 1 1 0 655.7523716281218 652.403188668877 657.5071199809144 0 0 0
147 1 1 0 653.7243052950862 656.0633451611242 661.7383633384352 0 0 0
148 1 1 0 654.0308377746168 656.567215487053 659.2057650378302 0 0 0
149 1 1 0 654.0755357969234 654.1558114753423 660.1746925727913 0 0 0
150 1 1 0 654.2856570803348 655.6542388873141 660.472213499764 0 0 0
151 1 1 0 655.7529820590727 655.831470190352 660.7132952627244 0 0 0
152 1 1 0 656.4487096403374 654.8730365129107 659.9831006614845 0 0 0
153 1 1 0 657.8176624958141 656.502946801201 659.0184075958815 0 0 0
154 1 1 0 654.9285129217526 653.753885647987 659.2353213708026 0 0 0
155 1 1 0 652.8299681105171 653.5820150266167 660.2951047154237 0 0 0
156 1 1 0 651.9831059114073 654.3398466386056 661.1804397739152 0 0 0
157 1 1 0 652.449485782961 652.5967404184349 659.3616785847782 0 0 0
158 1 1 0 650.0215014969406 652.8472623506699 660.1489149877455 0 0 0
159 1 1 0 651.0722007110709 652.2909004682584 659.3174133663887 0 0 0
160 1 1 0 650.5818334432071 651.6881469965097 658.1637563132573 0 0 0
161 1 1 0 654.8693640049441 655.470219609865 657.3062567015853 0 0 0
162 1 1 0 655.7839894887543 654.9113296829578 658.4166203935531 0 0 0
163 1 1 0 656.4433306580291 656.3961691361051 655.3507059172063 0 0 0
164 1 1 0 655.2863073422611 653.6039650469992 655.6284419672561 0 0 0
165 1 1 0 654.8409707908997 652.4394191015266 656.3695220602709 0 0 0
166 1 1 0 653.4253237919165 652.1708962187997 656.8896814988669 0 0 0
167 1 1 0 652.1983938043154 652.7426880591709 656.4311708580198 0 0 0
168 1 1 0 657.9544294541338 654.4390107604397 657.5590477172585 0 0 0
169 1 1 0 657.27772569182 655.4582086334082 658.2310556687974 0 0 0
170 1 1 0 657.8420663943774 653.2593791190642 655.1513570324607 0 0 0
171 1 1 0 656.5250525805812 653.8975536094123 655.0486430976337 0 0 0
172 1 1 0 639.3134766657183 651.9188716409125 638.223427540757 0 0 0
173 1 1 0 638.634191254443 653.2356001532381 638.4745508179274 0 0 0
1383 1 1 0 675.9331055453184 670.5970789398733 634.0726574524314 0 0 0
175 1 1 0 642.6873902025748 648.898465102502 635.7399882545245 0 0 0
1695 1 1 0 639.4362286493846 637.1808156679377 681.5791621067386 0 0 0
177 1 1 0 640.8838172154774 649.4096461426436 637.1168221601312 0 0 0
178 1 1 0 641.506369174717 648.3714835004367 636.3974695088359 0 0 0
179 1 1 0 639.5484548086688 649.7384177064325 636.7668816732315 0 0 0
180 1 1 0 639.0955377929918 651.1089652766957 637.0801292124974 0 0 0
181 1 1 0 638.3548944230007 653.947311802659 637.2967157665782 0 0 0
182 1 1 0 640.796641199311 647.4202751337374 635.59877126403 0 0 0
183 1 1 0 641.4324069258051 646.431765249208 634.8654531625431 0 0 0
184 1 1 0 653.4563863334007 652.1766047399933 658.3860916623594 0 0 0
185 1 1 0 654.8806415537807 652.5988502421193 658.6215705930572 0 0 0
186 1 1 0 634.3296814406382 646.0150315126538 657.3796952497291 0 0 0
187 1 1 0 634.3366122075173 643.4783795029955 657.3513336022238 0 0 0
188 1 1 0 640.0784718632291 654.819565999338 660.5515331031727 0 0 0
189 1 1 0 634.158513083052 647.5643612453923 657.642202049971 0 0 0
190 1 1 0 633.7286469037452 644.6711931194029 657.9059358936456 0 0 0
191 1 1 0 641.3287853166242 655.4868463915691 660.0453084267789 0 0 0
192 1 1 0 643.5794964433171 652.8038098310544 656.7048955213279 0 0 0
193 1 1 0 642.1973061339489 655.1385876651348 658.9478043578081 0 0 0
194 1 1 0 641.5280880681789 654.40961650025 657.882027600989 0 0 0
195 1 1 0 642.3256709181604 653.353678604398 657.3594740053232 0 0 0
196 1 1 0 642.7659180810028 646.7610063190268 634.428419994137 0 0 0
197 1 1 0 643.2855903430716 652.1517699304561 655.4565002403115 0 0 0
198 1 1 0 639.7557403210515 651.8450102284045 656.1302038969361 0 0 0
199 1 1 0 641.9923376880582 651.6746052275817 655.0967665787754 0 0 0
200 1 1 0 641.1637941556523 651.614796683121 656.1995037904234 0 0 0
1285 1 1 0 678.5856357964578 635.8382351407919 634.2879047159788 0 0 0
202 1 1 0 634.0948373406907 648.2361317920869 658.812233159461 0 0 0
203 1 1 0 639.2916226095246 665.5596634769194 636.4151214433249 0 0 0
204 1 1 0 644.0290902996244 656.2642836049778 660.246625270952 0 0 0
205 1 1 0 643.5947994829411 655.4034433066754 659.1163571125791 0 0 0
206 1 1 0 644.7968821806318 654.6860402781834 658.6781276038787 0 0 0
207 1 1 0 646.0930965949777 655.229959572118 658.8129378839261 0 0 0
208 1 1 0 645.1793357420105 655.9003308237642 660.9268461365367 0 0 0
528 1 1 0 652.0867182140998 633.9562606948704 681.4975750566908 0 0 0
300 1 1 0 642.9520893106505 675.8531971830489 633.8547810456145 0 0 0
211 1 1 0 640.6289913000744 665.4038408800079 635.94615963396 0 0 0
212 1 1 0 644.8508890427403 653.1887295075161 659.0040559870611 0 0 0
213 1 1 0 644.5035790656775 652.943481603072 660.5508595445681 0 0 0
214 1 1 0 642.6746261559796 654.6961582535562 662.9020068969104 0 0 0
215 1 1 0 639.5852503191477 647.9394388661854 634.9606822023704 0 0 0
216 1 1 0 657.1678282938425 652.940754758431 657.562041719939 0 0 0
217 1 1 0 657.7332562897622 652.9512708618327 658.9427407104702 0 0 0
218 1 1 0 634.3242048621536 642.3036300835138 658.1868284670778 0 0 0
1812 1 1 0 633.2346242687521 655.9912156186982 677.2285745928913 1 0 0
220 1 1 0 638.6642821270896 664.5808232718492 637.1809258415013 0 0 0
221 1 1 0 643.4764516568196 655.7240313638174 662.4604009461228 0 0 0
222 1 1 0 644.8627856662032 655.3939022323422 662.2308653627517 0 0 0
223 1 1 0 637.7045854046577 655.1984215208222 636.9954679472178 0 0 0
224 1 1 0 639.310444780359 649.3171243017857 635.3843981344659 0 0 0
225 1 1 0 638.9983559449649 651.9765375227875 635.9799576916786 0 0 0
226 1 1 0 659.6234267021476 651.7111191336205 658.0808179943185 0 0 0
227 1 1 0 658.9040698181458 652.2628574913782 659.1539549607569 0 0 0
228 1 1 0 657.5006215263154 653.9012742165199 659.9806921771167 0 0 0
229 1 1 0 634.4830011928291 649.568786037516 659.0682123341697 0 0 0
230 1 1 0 640.8969461387617 664.2762068837851 635.0348970966264 0 0 0
231 1 1 0 641.7064088682816 656.6371754665211 660.7858356883997 0 0 0
232 1 1 0 643.0093017830262 656.5343310727437 661.2975842245662 0 0 0
233 1 1 0 638.8086808530693 653.339034630713 636.0702485874866 0 0 0
234 1 1 0 661.992959260555 651.1441952641949 657.5396382747862 0 0 0
235 1 1 0 660.9348180599463 651.2208000489716 658.4376330712488 0 0 0
236 1 1 0 659.483560226171 652.8665191398724 660.3111473905988 0 0 0
237 1 1 0 658.6840756400587 653.8930184863414 660.7936294521242 0 0 0
238 1 1 0 634.8392537430335 650.449171394425 658.0820864668929 0 0 0
239 1 1 0 639.7460951065232 651.6095946570235 634.8552777934698 0 0 0
240 1 1 0 639.7656603820177 650.2735735172482 634.4927344420114 0 0 0
241 1 1 0 637.6502397179607 655.9232170702174 635.7398068719936 0 0 0
242 1 1 0 651.109361382674 658.5953607546148 659.8227239745759 0 0 0
243 1 1 0 651.2732823063545 657.0384236065876 660.2712669805777 0 0 0
244 1 1 0 662.023646825805 657.4089505552369 660.4682647110125 0 0 0
245 1 1 0 662.1033063154475 654.8856125224122 659.9032467615243 0 0 0
246 1 1 0 659.4103860263559 654.9392922845622 661.5429767659964 0 0 0
247 1 1 0 659.1626112363956 656.3309838899454 661.5910709570327 0 0 0
248 1 1 0 652.7582382311026 658.0863155418652 662.1341033907597 0 0 0
249 1 1 0 638.5123988660848 656.6365904736738 660.5899894805032 0 0 0
250 1 1 0 640.6649731880482 657.5327050394603 660.9807254980774 0 0 0
251 1 1 0 662.6245707950892 656.1794695352869 660.6159785470107 0 0 0
252 1 1 0 660.8134675693964 652.6145307474359 660.4050756497309 0 0 0
253 1 1 0 639.3456999339705 657.3495818479284 661.422845987843 0 0 0
254 1 1 0 660.3522582856316 657.0234072606532 662.0035875095672 0 0 0
255 1 1 0 641.6581638102878 651.9787083264303 657.6034607634418 0 0 0
256 1 1 0 654.236988293028 657.9563680310624 658.98975730893 0 0 0
257 1 1 0 661.3207490543303 651.477400289606 659.8058246817536 0 0 0
258 1 1 0 636.1052259238714 648.1063716750525 656.2475292829848 0 0 0
259 1 1 0 639.1848686258002 652.0649986304479 657.3912416709819 0 0 0
260 1 1 0 634.6249335689945 648.4393594601634 656.44986142962 0 0 0
261 1 1 0 635.5781086491679 651.6788290297308 658.1296355429257 0 0 0
262 1 1 0 636.774064408393 658.4737885753038 662.5885553165394 0 0 0
263 1 1 0 660.7547051576004 654.5294103056709 661.983712880179 0 0 0
264 1 1 0 661.3475974468861 656.6164840620519 662.9504263865542 0 0 0
265 1 1 0 640.0148511884731 651.1890757070059 653.8912338591173 0 0 0
1771 1 1 0 633.3321460381911 661.3456328129786 668.2573102096596 0 0 0
267 1 1 0 638.9504260941858 657.306206983823 662.7479693443877 0 0 0
268 1 1 0 639.5065782671713 656.4679492059659 663.7596150701376 0 0 0
269 1 1 0 664.5019997238784 651.9418016642467 655.775285657329 0 0 0
270 1 1 0 661.6277139294674 653.7401730961751 660.9272727344319 0 0 0
271 1 1 0 639.5256883569233 649.8965561341549 653.7281078248777 0 0 0
272 1 1 0 637.9818711208919 648.8846348640091 655.0429736071455 0 0 0
273 1 1 0 663.0263537152431 650.2577830345213 657.945417283995 0 0 0
274 1 1 0 636.8098028450268 649.1240634166588 655.6617610872894 0 0 0
275 1 1 0 661.5361703612597 655.1819694983868 662.9559044413012 0 0 0
276 1 1 0 638.8771368324353 655.4706790100552 659.971014428369 0 0 0
277 1 1 0 637.9085846524143 658.0452099597568 663.312205775987 0 0 0
278 1 1 0 664.8537723907756 650.6893834210916 656.4295855372438 0 0 0
279 1 1 0 662.5016653633892 650.8712848624873 660.2762447635341 0 0 0
280 1 1 0 640.1667387170994 653.9187368201831 657.9231058237109 0 0 0
281 1 1 0 638.7926372854782 654.1995266749145 657.919706164069 0 0 0
282 1 1 0 652.3520746911502 659.2029943416483 660.0259821608147 0 0 0
283 1 1 0 653.5293827675162 659.0708703279388 659.250179514202 0 0 0
284 1 1 0 652.7255060523187 659.2896480293934 661.423203948785 0 0 0
905 1 1 0 669.6976855281844 636.1568841352027 681.437205741252 0 0 0
761 1 1 0 679.788298694436 667.9169242184805 634.0324333859451 0 0 0
5269 1 1 0 680.0309746745602 633.538653127744 670.656567826677 0 1 0
288 1 1 0 644.0066476168196 675.6572603724081 634.7956038311025 0 0 0
289 1 1 0 643.677344170533 674.409827798087 635.5722284513495 0 0 0
290 1 1 0 644.3976454855418 673.2103175177402 635.2321121569066 0 0 0
1822 1 1 0 633.3919495053008 662.3725981953716 669.2642135610128 1 0 0
3121 1 1 0 681.7656169649266 637.2233278563472 669.8721635151188 0 0 0
293 1 1 0 647.5785217172581 673.8486069946877 634.9934873342152 0 0 0
294 1 1 0 646.9154697319598 675.0343527090912 635.5338340854167 0 0 0
295 1 1 0 646.6756107364813 672.6922966315025 634.8539732662939 0 0 0
1647 1 1 0 636.6454761771726 658.0252796089119 634.4660898359413 0 0 0
1067 1 1 0 680.682639807364 676.5385070160786 677.6194578063843 0 0 0
1877 1 1 0 632.7938839982271 660.4878481926296 674.2888832085561 1 0 0
299 1 1 0 641.5181878963828 674.1247835912706 634.5225490279395 0 0 0
1390 1 1 0 667.2166141049687 641.8129578635343 681.7740278860892 0 0 0
2092 1 1 0 680.3907245972287 675.6782128299809 654.9749773302736 0 0 0
302 1 1 0 642.2115932140912 674.0243359429221 635.802817669772 0 0 0
303 1 1 0 641.6196012716454 673.0177196635645 636.6576297878798 0 0 0
304 1 1 0 643.4234887830802 670.9529117548468 635.8338316609762 0 0 0
305 1 1 0 643.5706194713752 672.0861480049758 634.9613740426098 0 0 0
306 1 1 0 643.1344621043157 668.9477284429977 635.7218430723386 0 0 0
307 1 1 0 645.8202884018958 670.3092126925744 635.6294917252746 0 0 0
308 1 1 0 646.6355718376011 671.3133465504116 635.1507836389633 0 0 0
309 1 1 0 644.479636064749 669.8428348327978 635.6944272655177 0 0 0
1474 1 1 0 673.3218529645442 675.7081431360803 633.3851832546367 0 0 0
311 1 1 0 641.2942283346848 671.6514074498645 636.5994173401523 0 0 0
1356 1 1 0 677.0442549022941 671.478618799318 633.9565615469361 0 0 0
313 1 1 0 638.9999072373686 671.7739222438166 635.2401961378018 0 0 0
314 1 1 0 642.2112580881519 668.9287232299716 636.9616077603188 0 0 0
315 1 1 0 642.3028976275004 670.568734243322 636.5800635059227 0 0 0
316 1 1 0 640.1702873563341 671.2367180774219 635.8604835583228 0 0 0
1178 1 1 0 680.7461745999 677.661392421318 679.8925675056214 0 0 0
301 1 1 0 645.4774463505136 673.2086030698975 634.3130630726426 0 0 0
1687 1 1 0 646.0397635947305 633.7385707962002 676.0017902089463 0 0 0
696 1 1 0 666.1609241598605 659.4477509977971 634.8246018710081 0 0 0
321 1 1 0 638.7999254199328 666.893897356779 635.8854696297475 0 0 0
322 1 1 0 641.5264361104732 666.5483538435622 635.9876319118254 0 0 0
323 1 1 0 639.7103148408976 667.918449644166 636.6448131402666 0 0 0
324 1 1 0 642.1122998444012 666.8604718567245 634.746320574687 0 0 0
325 1 1 0 641.1601804060824 667.739381482671 636.7776552259305 0 0 0
326 1 1 0 639.2840078292372 669.2044215620307 636.2777194238499 0 0 0
1846 1 1 0 633.2344395810969 664.4550655602029 666.854182193335 1 0 0
1835 1 1 0 633.8989125872984 665.4086654797026 671.9024641842618 1 0 0
1637 1 1 0 660.1160531491078 667.4266371972548 682.3838793504352 0 0 0
1726 1 1 0 681.413422535687 635.0090767738118 640.0574192959554 0 0 0
1330 1 1 0 633.8960715197347 655.2718847675719 658.4294512599947 0 0 0
1667 1 1 0 682.0260278432651 635.9080916301862 676.9642296564518 0 0 0
1391 1 1 0 670.8164532652413 640.0971856958402 682.4072737395186 0 0 0
4732 1 1 0 669.8836061706884 634.4608976594053 645.174312358321 0 1 0
1893 1 1 0 681.1604060216508 677.706319389353 647.5969968462769 0 0 0
3305 1 1 0 664.4585944564867 634.1572135186857 650.9737082318616 0 1 0
4545 1 1 0 666.7123919126286 634.1865096647942 646.2687324400015 0 1 0
286 1 1 0 647.6247517263599 676.4795516036687 633.8549719274703 0 0 0
1696 1 1 0 632.7579824873932 657.1739150227826 659.8948943818571 0 0 0
340 1 1 0 642.297179220429 668.3653074989747 634.5268219288023 0 0 0
1701 1 1 0 680.984482466567 640.4511992526101 675.3658971346609 0 0 0
1169 1 1 0 680.5889077684745 676.5004020550381 679.1257705686592 0 0 0
343 1 1 0 640.8526967932344 668.9512841986309 634.4323041823085 0 0 0
344 1 1 0 640.25085245176 669.8688370645289 635.5545254557784 0 0 0
345 1 1 0 638.0180207057876 669.3757269853807 635.634914898625 0 0 0
346 1 1 0 638.0978926454735 670.6271472869387 634.7687145525047 0 0 0
1361 1 1 0 667.5522214781341 682.1884422378057 634.9736079134268 0 0 0
1049 1 1 0 681.0701204935372 676.8793538790298 674.0266382017143 0 0 0
807 1 1 0 670.9956808848799 660.5504978578946 634.1136266185207 0 0 0
7435 1 1 0 645.7051492271889 646.934804566687 633.9944394336142 0 0 1
1820 1 1 0 633.951173287428 663.0959538224054 671.5469117800606 1 0 0
1311 1 1 0 671.8714987255353 640.6481412075087 681.5730272542849 0 0 0
2091 1 1 0 680.2153199664485 675.1506173128635 653.4985606727251 0 0 0
3265 1 1 0 673.3929636185414 635.5490720589092 640.4968560999448 0 1 0
1676 1 1 0 639.9893613986034 653.7210770944273 634.0552566786321 0 0 0
1313 1 1 0 681.3505991615715 637.3833359974302 678.7647730320708 0 0 0
3119 1 1 0 679.2284243740763 677.754082426347 654.4190040901282 0 0 0
358 1 1 0 637.7167660249353 668.0114371363946 635.1466588019412 0 0 0
712 1 1 0 675.2506140350373 665.7895656712951 633.8444009701501 0 0 0
4711 1 1 0 675.782348319891 634.2898090937315 644.418183389631 0 1 0
3170 1 1 0 677.2229943828984 678.1430303092826 656.9466542969434 0 0 0
539 1 1 0 654.4094358315965 633.7479263341919 681.3648082830694 0 0 0
363 1 1 0 657.790318714925 660.591319315424 662.9980703263715 0 0 0
364 1 1 0 657.1989637479371 659.3442808509287 662.3822710721453 0 0 0
365 1 1 0 655.8111321208605 659.0733521586271 662.3623520515105 0 0 0
366 1 1 0 656.9068049686916 661.694828242417 663.309492178496 0 0 0
367 1 1 0 657.5958282546648 662.9221340945087 663.7371802626922 0 0 0
368 1 1 0 656.6897923194251 664.2247381811563 662.5318461054134 0 0 0
369 1 1 0 656.661550517985 665.466121033988 663.0708764793014 0 0 0
370 1 1 0 655.6265792259428 661.5445438081393 662.6713411469884 0 0 0
371 1 1 0 655.571309872106 663.855913865802 661.7385668078243 0 0 0
372 1 1 0 655.6871541751185 664.6279277692051 660.5772722574928 0 0 0
373 1 1 0 656.1911955388139 666.4070060283417 662.1292417086592 0 0 0
374 1 1 0 656.3535514458621 667.7197867964619 662.3888107979296 0 0 0
375 1 1 0 656.1687842853115 665.9482376283524 660.7648808428517 0 0 0
376 1 1 0 656.768664015665 668.5428402103133 661.2368385122453 0 0 0
377 1 1 0 657.6707108518791 667.7682589396594 660.4386296003207 0 0 0
378 1 1 0 656.9286674411499 669.9907977622962 661.251626543546 0 0 0
379 1 1 0 659.0887244856503 667.6359104139627 660.9074839606601 0 0 0
380 1 1 0 657.1893816504532 666.483769616965 659.9813307888855 0 0 0
381 1 1 0 657.9836935028038 665.4552179204334 659.32386894084 0 0 0
382 1 1 0 659.4187650973225 666.2793846641049 660.9830128806678 0 0 0
383 1 1 0 655.0101170072828 660.1981454418675 662.4791196410434 0 0 0
384 1 1 0 653.802064837117 660.1832659074335 661.6766902118732 0 0 0
385 1 1 0 654.0025510074246 657.3761037128553 662.1381183408922 0 0 0
386 1 1 0 655.1448185534177 662.590466717802 661.8126958798254 0 0 0
387 1 1 0 654.6834710367827 662.1695910033567 660.5867574863627 0 0 0
388 1 1 0 654.0624120128647 660.945989868339 660.5051300914765 0 0 0
389 1 1 0 654.39671491347 660.1856277891545 659.3484852743333 0 0 0
390 1 1 0 655.7578923770391 660.2203737119859 658.9743581111625 0 0 0
391 1 1 0 656.5375697782622 658.7466111814595 659.1564166235834 0 0 0
392 1 1 0 655.4870693385839 662.5228417844293 659.4132972091579 0 0 0
393 1 1 0 656.2555722776004 661.4818805541864 658.8845517511515 0 0 0
394 1 1 0 656.063915266664 663.8618527797943 659.4423204730676 0 0 0
395 1 1 0 657.6154208116063 661.7090171965481 658.7844814066002 0 0 0
396 1 1 0 658.352838686667 660.5775933652872 658.8403055097519 0 0 0
397 1 1 0 655.4345684622432 658.244118070201 658.2204699254191 0 0 0
398 1 1 0 657.65133130278 659.4968039118114 658.3783467282587 0 0 0
399 1 1 0 657.4296870038509 664.110427549329 658.9954237885162 0 0 0
400 1 1 0 658.1677220582203 662.9385866234494 658.8505533473525 0 0 0
401 1 1 0 659.3382925119865 665.4656894572694 659.7766166743235 0 0 0
402 1 1 0 659.4502151349553 663.0114721056365 659.3735440572965 0 0 0
403 1 1 0 659.7426871049926 664.1736113208874 660.111537467771 0 0 0
404 1 1 0 659.431719752384 663.879909488692 661.6860298043588 0 0 0
405 1 1 0 655.3688045300579 657.824228724587 661.9879301332893 0 0 0
406 1 1 0 656.1397190800441 657.1527365030785 661.0003998834843 0 0 0
407 1 1 0 658.060138550453 663.6046964558482 662.4086897893623 0 0 0
408 1 1 0 659.9086649504487 661.8779058963304 660.1558404714713 0 0 0
409 1 1 0 659.6992707071887 660.2851928003768 659.672293274743 0 0 0
410 1 1 0 658.2434911982907 658.873975590812 661.5190688422971 0 0 0
411 1 1 0 659.1502095798168 659.9510177780652 661.2682554763743 0 0 0
412 1 1 0 660.1142084955927 662.5005452693135 661.3985249359711 0 0 0
413 1 1 0 660.193977590916 661.770052973413 662.6565962447409 0 0 0
414 1 1 0 659.1146919022486 660.76193125776 662.4921533726096 0 0 0
415 1 1 0 660.7609177319687 662.5632716570324 663.6858900940842 0 0 0
416 1 1 0 661.014993542171 663.7146081645641 664.3673804847971 0 0 0
417 1 1 0 659.2651212165601 665.4342608829262 662.116518377329 0 0 0
418 1 1 0 657.7138942701326 665.4924032333737 664.2769472678581 0 0 0
419 1 1 0 659.0082040951962 665.7686803300414 663.4416852550039 0 0 0
1881 1 1 0 680.9962254120435 678.46495222084 649.8660288534115 0 0 0
421 1 1 0 657.8210202078728 663.9725795090193 664.770791886473 0 0 0
422 1 1 0 656.8138214658934 668.0712194035917 663.6714188143214 0 0 0
423 1 1 0 657.3228375602764 666.4822982098015 665.3677399244973 0 0 0
424 1 1 0 658.1128252160372 668.7334474056157 663.737159573894 0 0 0
425 1 1 0 660.1395034098 666.0904739122433 664.240536809117 0 0 0
426 1 1 0 660.5381410404292 664.9126486601004 664.9471150782783 0 0 0
427 1 1 0 656.5067078187996 667.6020048556329 664.9764450279741 0 0 0
428 1 1 0 659.4882382575162 668.3262188161308 663.3615034142027 0 0 0