LAMMPS data file via write_data, version 2 Aug 2023, timestep = 50000, units = metal

35556 atoms
1 atom types

638.5955953835594 734.0924036164552 xlo xhi
638.9586079076632 734.4383910923491 ylo yhi
638.9224282447418 734.4745707552705 zlo zhi

Masses

1 12.0107

Atoms # full

1 1 1 0 652.5549019862416 640.3712981941086 643.9065656295088 0 0 0
1084 1 1 0 686.0997668845949 672.4625104549598 645.762512944442 0 0 0
3 1 1 0 639.1096305180617 657.930526924343 684.6946208863376 0 0 0
4 1 1 0 651.1550904758406 640.9050983682 641.8173282874037 0 0 0
5 1 1 0 649.9511673115426 640.1329894017961 641.2526432399363 0 0 0
6 1 1 0 648.8711602986073 641.0669750241086 640.6390718460071 0 0 0
7 1 1 0 645.1483448096922 673.6860402068812 677.6442127166861 0 0 0
12905 1 1 0 669.9280838439405 686.2218238139365 683.0468569915322 0 0 0
9 1 1 0 648.0264728553709 650.6828244501265 683.3464053401991 0 0 0
10 1 1 0 646.0665294537459 672.6210977330447 677.9985104138268 0 0 0
11 1 1 0 647.5659355053783 640.4279904146063 640.4795606398569 0 0 0
12 1 1 0 654.4795521372566 643.9629574928836 649.4587434098474 0 0 0
13 1 1 0 660.9921126164834 641.962217340473 670.9620702774932 0 0 0
14 1 1 0 650.8538434285913 645.8624440190106 684.060239949522 0 0 0
15 1 1 0 640.6769575091143 657.1422078587552 671.3824238702192 0 0 0
16 1 1 0 640.0101740713477 664.9071024004498 644.3169536789171 0 0 0
17 1 1 0 681.8082071539288 674.2165340853568 641.2270675360443 0 0 0
18 1 1 0 668.7280035564999 686.0706354673575 685.1751592974211 0 0 0
19 1 1 0 650.8801576299096 646.7243131320977 640.0741467939367 0 0 0
20 1 1 0 654.0364960930689 645.4576738519538 642.6048750399351 0 0 0
378 1 1 0 639.5563258992328 649.6798652903024 665.534740771072 0 0 0
22 1 1 0 640.233080317188 662.9036720068362 674.8755082216358 0 0 0
23 1 1 0 654.6331208890094 641.8280741047596 650.6529312673651 0 0 0
24 1 1 0 639.7282333531507 641.4442509855131 659.7605766398344 0 0 0
1800 1 1 0 638.6944807511069 680.3288466259844 655.1158619984315 0 0 0
26 1 1 0 641.1356018374217 661.9026239722423 671.4757428142402 0 0 0
27 1 1 0 645.4243142715565 665.6641666918215 647.3169281126792 0 0 0
28 1 1 0 650.4546650907097 641.3156711899876 685.5290824601385 0 0 0
9351 1 1 0 682.0497217336343 639.4361583896059 653.2584206573755 0 1 0
30 1 1 0 646.3666469878774 667.3420755036716 645.8343178148174 0 0 0
31 1 1 0 645.4337524854037 652.4230037835183 644.5311955146014 0 0 0
32 1 1 0 665.5751519004526 663.2444893232505 643.7696461000586 0 0 0
33 1 1 0 640.8803789394183 664.8101212852127 645.3895091615934 0 0 0
34 1 1 0 678.5019403401101 642.5188268435255 640.1050961699392 0 0 0
35 1 1 0 644.2289465129469 642.8384758909174 640.3526687768939 0 0 0
36 1 1 0 649.1285319016041 647.8892018255357 644.5158595448625 0 0 0
37 1 1 0 647.3343806671562 673.0478288498778 678.6434013883147 0 0 0
38 1 1 0 648.4993035422247 669.566792857496 643.9769096364265 0 0 0
39 1 1 0 662.5125183127834 674.2421858903763 685.1493560254872 0 0 0
2561 1 1 0 671.1763867164857 678.0558084741675 639.4970305487045 0 0 0
41 1 1 0 677.7136523947648 684.625761952839 681.1095621344791 0 0 0
42 1 1 0 666.339609284815 686.0725956795555 641.5887234825094 0 0 0
43 1 1 0 663.2184611415155 654.655639875286 640.7015997422577 0 0 0
44 1 1 0 645.9002366674525 667.0083292162238 647.1087340959172 0 0 0
45 1 1 0 647.5676491343274 668.559169664031 647.9532797232661 0 0 0
46 1 1 0 656.7023181324879 684.3140759180261 642.80982460197 0 0 0
2158 1 1 0 680.045742037858 680.8650962935244 639.5903261301715 0 0 0
48 1 1 0 678.896705479329 684.3650620012987 683.6385150598079 0 0 0
3048 1 1 0 684.8987962969543 639.6895059832697 677.1723353284041 0 0 0
8410 1 1 0 650.5912906829667 640.3691597405312 686.4645545583683 0 0 0
51 1 1 0 657.1696674739205 641.305914221741 679.3418542098022 0 0 0
52 1 1 0 661.0460095576308 673.609837649173 683.5735142951565 0 0 0
53 1 1 0 674.3722357473368 659.9657486367722 685.9810141283227 0 0 0
844 1 1 0 638.6886497866398 660.1840599472874 686.4120301049988 0 0 0
5339 1 1 0 639.0926665589417 655.6693415471169 639.10185418803 0 0 1
56 1 1 0 648.2381073467611 668.8628970768407 650.2814092218871 0 0 0
57 1 1 0 645.433709268625 668.1009611507994 649.2077214197324 0 0 0
58 1 1 0 647.2487405782988 667.762273592787 650.8759957236995 0 0 0
59 1 1 0 662.4822703336879 643.3190042123899 672.0311263392443 0 0 0
60 1 1 0 646.597723196918 642.5454517972724 640.5740138442143 0 0 0
61 1 1 0 640.7663115161074 677.257226170273 681.8572535703252 0 0 0
62 1 1 0 666.4419838496779 676.2979883007456 648.0343130187244 0 0 0
63 1 1 0 660.484878742566 639.6756109994936 675.5069776724073 0 0 0
64 1 1 0 654.3455143181861 645.4149774819728 647.2077176316695 0 0 0
65 1 1 0 645.9481037091045 668.4605199037651 650.4797808414124 0 0 0
66 1 1 0 674.7242886591123 643.3180239010037 647.3632088741671 0 0 0
67 1 1 0 675.7632066499746 641.3377561680675 646.2885414219611 0 0 0
68 1 1 0 674.5578856108491 641.9474181319149 646.9003693525211 0 0 0
69 1 1 0 673.4083003840756 641.1914403596817 646.3329099222467 0 0 0
12734 1 1 0 650.4244922663164 685.83535402557 672.8110768066383 0 0 0
8381 1 1 0 647.7483815123196 678.004267539309 686.3238263003607 0 0 0
72 1 1 0 675.4852183014992 641.1915214773268 644.9006029619202 0 0 0
73 1 1 0 676.0072915347337 642.1365802879905 643.9674196612424 0 0 0
5216 1 1 0 648.5459286525421 644.4715879699846 686.3514526706025 0 0 0
75 1 1 0 677.7955690284944 685.4618356460788 683.3988170506655 0 0 0
76 1 1 0 680.0213353487758 686.2370659041607 640.2425147124868 0 0 0
992 1 1 0 650.6002375255456 680.2553377065531 685.9312011808659 0 0 0
78 1 1 0 675.9850887705609 641.7145837485673 642.6169236003122 0 0 0
79 1 1 0 676.7350045137349 642.0185361229745 641.4238634831959 0 0 0
80 1 1 0 685.6401797945645 650.8199059707144 666.7344641104644 0 0 0
8415 1 1 0 648.6939791529023 643.995342690734 639.0668034366505 0 0 1
82 1 1 0 664.9034768234916 659.6580483088011 640.6057497408377 0 0 0
83 1 1 0 667.2546354952627 683.9736760105942 642.2476416887342 0 0 0
84 1 1 0 676.246555664534 641.8967653419264 640.1201229491829 0 0 0
85 1 1 0 658.4810070677992 640.7466744088407 674.7464355367404 0 0 0
86 1 1 0 675.5870877100458 640.7308204956884 639.8640964540383 0 0 0
87 1 1 0 644.4044390381061 684.7254861761905 676.5195303031819 0 0 0
88 1 1 0 639.6962581991903 667.4185641751725 670.5774022082429 0 0 0
89 1 1 0 657.16162331895 640.601461622555 674.4771097175499 0 0 0
90 1 1 0 644.1095387731358 683.6306254627652 679.6919557997091 0 0 0
91 1 1 0 668.5444940539322 664.5576019703279 647.2942209998796 0 0 0
221 1 1 0 662.638069738722 686.5644091513385 663.085619781955 0 0 0
93 1 1 0 663.0000430711974 640.0964515704793 676.6270801477094 0 0 0
94 1 1 0 656.5897222969018 643.6216666138314 671.9295742834674 0 0 0
95 1 1 0 661.055650656999 643.164332033248 671.7118609827643 0 0 0
96 1 1 0 664.3682645912671 640.0575057317127 667.9157745300404 0 0 0
97 1 1 0 674.7392137794093 685.3241820957289 680.9018794468604 0 0 0
98 1 1 0 647.7014052878694 670.3918586543878 640.3199576481674 0 0 0
99 1 1 0 645.054039306775 660.1569448679277 666.5336730908036 0 0 0
9849 1 1 0 657.6619609792829 640.0302497088401 681.7411659833397 0 1 0
101 1 1 0 643.0006872687347 683.8843355388256 678.8257438814229 0 0 0
20900 1 1 0 639.3970203933013 683.0170902113792 669.7567353750584 1 0 0
103 1 1 0 668.7067685218146 649.292266316548 685.8058023511913 0 0 0
104 1 1 0 639.6916763673358 684.3478937077423 665.1952532419016 0 0 0
105 1 1 0 684.8370427892223 645.6047232712327 677.48445673887 0 0 0
106 1 1 0 649.3061708975405 648.7186631931429 682.2625241746726 0 0 0
107 1 1 0 648.4994677198956 644.8753391008624 642.650217657544 0 0 0
108 1 1 0 658.2246314585956 640.6262534386894 645.8628234655238 0 0 0
3694 1 1 0 647.580092493442 653.4518876926164 686.6508803610548 0 0 0
110 1 1 0 644.0248041456454 681.205453098278 679.5256270197287 0 0 0
111 1 1 0 655.4390964649209 683.8803652840072 642.2808549683989 0 0 0
112 1 1 0 641.3989849838106 658.2365024677432 670.9987513621957 0 0 0
113 1 1 0 655.3308107213209 682.4636874825029 642.1670805287073 0 0 0
114 1 1 0 642.7547107164402 664.5144088070844 672.6473925783963 0 0 0
115 1 1 0 646.3772028705198 650.3290538515388 644.9178928251573 0 0 0
21722 1 1 0 639.8715423818941 683.5231569629741 667.5213191077091 1 0 0
117 1 1 0 646.3119364685562 680.7177515047902 681.2304682237118 0 0 0
118 1 1 0 662.4884271883053 643.3012815483586 674.9123136557605 0 0 0
119 1 1 0 661.9305101221709 672.4195917922763 641.778121701786 0 0 0
120 1 1 0 641.9362956004431 653.6745971771319 666.6438087256779 0 0 0
121 1 1 0 683.7123210859218 645.0503924691942 675.4607566438772 0 0 0
122 1 1 0 662.0059829987565 679.1607240762182 685.8839694569098 0 0 0
123 1 1 0 643.3007700451467 666.4599785048225 649.2735933293902 0 0 0
124 1 1 0 683.5235304830231 665.365693204582 685.275970369749 0 0 0
125 1 1 0 646.1247437111087 664.9986046974282 648.4253786898495 0 0 0
126 1 1 0 675.2827213594271 640.5282090278299 642.2579826773484 0 0 0
127 1 1 0 641.0865327954482 682.6330679127493 677.7901333060464 0 0 0
128 1 1 0 657.7895754735357 640.289168480082 661.580963774694 0 0 0
129 1 1 0 644.4901435649556 682.3194493290016 680.2586056535274 0 0 0
130 1 1 0 651.9023773178195 644.1126671812048 643.5409997936973 0 0 0
131 1 1 0 652.4961869875426 641.7676215984744 644.3213539125588 0 0 0
132 1 1 0 651.7475010722047 642.6863638191606 643.581210825438 0 0 0
133 1 1 0 650.8226093179119 642.095766030054 642.6705715582385 0 0 0
134 1 1 0 649.695678415242 642.7809923663619 642.4091158938172 0 0 0
135 1 1 0 648.6668659955744 642.185877025178 641.6673779786407 0 0 0
136 1 1 0 658.7167007230398 643.6481755470126 671.0981468847694 0 0 0
4158 1 1 0 661.3245263742856 680.499434376845 686.2080892187905 0 0 0
138 1 1 0 663.3760642100827 642.385569967356 671.2743475332768 0 0 0
139 1 1 0 653.0361229577405 644.8425143496094 645.4727396805565 0 0 0
140 1 1 0 653.3365392518526 643.5622255533259 645.9720055588095 0 0 0
141 1 1 0 652.8361241268315 644.929996416225 644.1215192509313 0 0 0
74 1 1 0 686.2334583520752 643.0247282646318 680.6130451698606 0 0 0
143 1 1 0 640.7293948614272 684.8312736992107 662.9531262946192 0 0 0
144 1 1 0 663.3500073167742 682.7247635200233 645.44072528342 0 0 0
145 1 1 0 681.2401885699537 676.4307662378811 640.4341249378203 0 0 0
146 1 1 0 639.439579109212 685.8714729930376 663.187759839083 0 0 0
4046 1 1 0 659.7301723683411 652.990400906591 686.2425158440225 0 0 0
148 1 1 0 649.7691220660694 648.7041388997403 640.7688094557244 0 0 0
149 1 1 0 658.2585547557337 685.399069875099 665.8036200232649 0 0 0
150 1 1 0 647.948874502461 683.2012957225749 681.686227769092 0 0 0
151 1 1 0 642.0503191640631 656.0935774011596 643.9407617340282 0 0 0
152 1 1 0 642.4694226639594 654.9016554029466 643.3475849452092 0 0 0
153 1 1 0 678.7860101299704 643.7847180011061 646.6963449845701 0 0 0
154 1 1 0 642.2122812004211 665.1741031194911 645.2881283639398 0 0 0
155 1 1 0 651.4476461954338 648.4133750151743 644.8149718609982 0 0 0
156 1 1 0 651.7890639229704 647.333774720496 643.6138635028185 0 0 0
157 1 1 0 650.1352009248246 648.536480317602 645.2655229044068 0 0 0
158 1 1 0 660.299361570641 640.2767074016551 668.8471877823786 0 0 0
159 1 1 0 643.2403306173612 666.2337928246302 678.01733778011 0 0 0
160 1 1 0 642.8291288914544 640.9930441454721 640.5973747854092 0 0 0
161 1 1 0 646.8779399635451 653.7111286621325 685.3107723914387 0 0 0
162 1 1 0 670.7764360418977 659.4039439254526 686.0203922139222 0 0 0
163 1 1 0 654.7067584516914 641.7567388544417 655.3551963711323 0 0 0
164 1 1 0 665.2739193748748 662.0776880404106 644.4775746013067 0 0 0
165 1 1 0 646.9767575755704 652.8345428493475 684.1833231681414 0 0 0
166 1 1 0 685.0072298927419 684.4075479259324 677.2766769218366 0 0 0
167 1 1 0 641.946609217114 654.5562180741514 642.0384119168547 0 0 0
168 1 1 0 639.6240109983686 661.7486775104633 675.4048421701701 0 0 0
1286 1 1 0 639.2043105750341 640.0432793243714 657.7756157670677 0 0 0
170 1 1 0 662.003030853794 672.5815429889694 683.5452576947421 0 0 0
171 1 1 0 650.6068974492557 646.2270570086741 643.6305117286329 0 0 0
172 1 1 0 650.719420787011 644.8275526455503 643.3965515087094 0 0 0
173 1 1 0 649.3437877125609 646.7341789497008 643.8492814229322 0 0 0
174 1 1 0 647.6518029165766 651.0062062066793 682.0287816814756 0 0 0
175 1 1 0 646.8569164266734 647.8314020021355 643.7082334750298 0 0 0
176 1 1 0 647.213374242459 646.742691818984 642.9459425419659 0 0 0
177 1 1 0 645.7998196919984 648.6035075208505 643.2622453329351 0 0 0
178 1 1 0 645.2770607388065 648.4213400571224 641.9563484562334 0 0 0
179 1 1 0 667.3330171196195 639.4535049896107 680.9458127192564 0 0 0
180 1 1 0 639.9604880951274 660.7238420802332 673.2799833402631 0 0 0
181 1 1 0 645.6995335294353 653.7411143471015 644.3665822442531 0 0 0
182 1 1 0 643.6744972681672 658.2653576958255 683.9962850823862 0 0 0
183 1 1 0 680.7632244370303 683.1944392576466 682.5976700027222 0 0 0
184 1 1 0 663.9605686460718 640.7132374341788 669.1035742763956 0 0 0
185 1 1 0 647.254171025735 668.3646566931319 645.5851443694067 0 0 0
186 1 1 0 664.3722765581728 642.4854720185584 676.1333291349488 0 0 0
187 1 1 0 649.6106992582694 644.1040324971493 642.8684674433996 0 0 0
434 1 1 0 652.8967959088365 639.4738787392506 660.7155740651139 0 0 0
189 1 1 0 663.6671441387992 669.0205864312434 640.1813634795552 0 0 0
190 1 1 0 644.3591526384464 651.8823939595926 643.8381071203086 0 0 0
191 1 1 0 647.4714826096733 649.5318376611658 645.321947579888 0 0 0
192 1 1 0 653.6736313072413 641.8569586701925 657.4159683878337 0 0 0
11738 1 1 0 654.1005212861254 639.4805169600893 679.5951506161675 0 1 0
194 1 1 0 655.0374011470818 643.136688716242 652.9676491843401 0 0 0
195 1 1 0 676.5422576055146 640.7180929368545 684.7098784181426 0 0 0
196 1 1 0 642.0491084361684 667.8067857386205 679.3413926469989 0 0 0
197 1 1 0 651.4418694537154 670.9677197746905 645.4262400397577 0 0 0
198 1 1 0 651.1575888001018 671.0307169805722 646.7956222001201 0 0 0
199 1 1 0 642.5174797708405 664.579561694776 647.6699206665169 0 0 0
12400 1 1 0 652.8463157673746 639.2563500900335 657.0568285571045 0 1 0
201 1 1 0 670.8332615114782 655.423988924919 641.433997067938 0 0 0
202 1 1 0 648.6216146509869 648.2766324303834 640.0781179722579 0 0 0
203 1 1 0 664.5739968306494 639.5265958468892 678.3820824617544 0 0 0
204 1 1 0 656.5083360487188 685.7485099699448 667.8830521720907 0 0 0
205 1 1 0 674.9091183451037 674.5856655241392 640.0559320976798 0 0 0
954 1 1 0 666.2420081345223 658.0163058004109 639.0376499179968 0 0 0
20898 1 1 0 639.1729217616329 683.5170472605259 671.0711191923909 1 0 0
208 1 1 0 641.9066989626035 665.0969250905957 642.8536483575352 0 0 0
209 1 1 0 650.0323058350416 670.3763687706378 647.3083006337338 0 0 0
210 1 1 0 647.1894914880584 666.0643664579987 650.7442425294079 0 0 0
211 1 1 0 666.8678895584228 684.4279199858998 685.3034699241856 0 0 0
212 1 1 0 640.3827767562094 681.4526443537637 677.4410099366564 0 0 0
213 1 1 0 641.1218609378377 676.6414845438395 683.0601635206677 0 0 0
214 1 1 0 639.8238115264513 660.948152864054 640.4664782739909 0 0 0
215 1 1 0 659.1076772802061 641.9918238119864 674.8838705517854 0 0 0
216 1 1 0 668.0829728457398 656.6413395897217 685.6909490030445 0 0 0
217 1 1 0 657.5564363530143 644.3875048172764 671.2402656224566 0 0 0
218 1 1 0 641.4551496987567 663.6593788722678 647.5170419198495 0 0 0
219 1 1 0 654.612680040625 644.3434079135768 640.2123063455916 0 0 0
220 1 1 0 649.5073530793996 669.7277955436202 644.9144138255496 0 0 0
1308 1 1 0 639.262373758733 663.7012480805097 646.6068940852939 0 0 0
222 1 1 0 642.6391801228278 639.6865533815775 640.841919852348 0 0 0
223 1 1 0 669.7378043468889 679.2217555670384 640.9476769478232 0 0 0
224 1 1 0 659.9532349784816 675.2868101922293 682.353189757048 0 0 0
225 1 1 0 660.5018661462439 640.682855391978 641.4539176531098 0 0 0
226 1 1 0 641.8203711696908 666.5673672154709 671.728975057882 0 0 0
227 1 1 0 685.8321153727759 682.5345139152046 651.5490631998863 0 0 0
228 1 1 0 657.0583750625125 642.9445200938268 674.0709947897924 0 0 0
229 1 1 0 644.2074547470588 667.4206673156514 649.1669151949633 0 0 0
12749 1 1 0 680.5925183943673 639.192611298125 681.0702879039289 0 1 0
231 1 1 0 666.0301499981023 665.6690088593822 642.5013688518561 0 0 0
232 1 1 0 668.3295194855364 645.2805790054664 676.8115995705043 0 0 0
233 1 1 0 654.3302421043095 649.5429025376735 647.0823466992982 0 0 0
234 1 1 0 654.2806738851409 648.1118091772943 646.9865654884636 0 0 0
235 1 1 0 653.9166561478818 650.2856965229938 645.9571943777395 0 0 0
236 1 1 0 653.7058746847308 649.5921798341092 644.6452725606258 0 0 0
237 1 1 0 651.9125093870929 650.3881629803728 646.1015395940905 0 0 0
238 1 1 0 652.3224728921969 649.4356004529857 645.1349549778008 0 0 0
239 1 1 0 650.5962602200132 650.6721186300438 646.3902431727164 0 0 0
240 1 1 0 653.9078622523302 647.2521681227965 645.8062620061907 0 0 0
241 1 1 0 654.0069133219671 647.365441034338 644.3494564883435 0 0 0
242 1 1 0 653.1432601234384 646.392969643836 643.5525473844257 0 0 0
243 1 1 0 647.4138132460557 668.7714412792366 644.2549449792742 0 0 0
244 1 1 0 653.5214681590945 645.9487794295001 646.2277818327879 0 0 0
245 1 1 0 655.3476491571489 652.6313867556066 650.3423853610304 0 0 0
246 1 1 0 653.9201518501351 651.636536619824 648.4033238557802 0 0 0
247 1 1 0 654.4559831541324 650.2828879338424 648.3009799515847 0 0 0
248 1 1 0 652.9168327529096 652.1656311016477 647.5617107869675 0 0 0
249 1 1 0 652.2222587793245 653.6169412753649 647.6781551134044 0 0 0
250 1 1 0 655.773877969241 653.9453898200829 650.6856386255789 0 0 0
251 1 1 0 654.5835677870249 652.6645231971418 649.1561384350831 0 0 0
252 1 1 0 666.8593873597113 642.8780877267909 677.3044696149786 0 0 0
253 1 1 0 654.0831792909324 672.3998681154424 642.9615854385266 0 0 0
254 1 1 0 670.5694148584857 644.3917646816793 681.0126362891053 0 0 0
255 1 1 0 662.5818530362415 645.5601083790932 674.0968118148655 0 0 0
256 1 1 0 652.9075565745707 652.4713188305869 645.0718465381689 0 0 0
257 1 1 0 659.0930789757388 646.7792410262299 674.1261613295483 0 0 0
258 1 1 0 657.2795940900069 647.6773076396242 672.8875216873137 0 0 0
259 1 1 0 665.1577233264383 663.4401993940285 642.4717836737352 0 0 0
5091 1 1 0 654.3580758384885 684.7217260580551 686.6141512822933 0 0 0
261 1 1 0 661.3394200418911 647.8830431023542 673.7070044300942 0 0 0
262 1 1 0 664.3491272701527 673.3759421701789 685.661140940283 0 0 0
263 1 1 0 647.0546373030697 685.2793510766203 678.5001723287323 0 0 0
264 1 1 0 670.6089968245624 641.6835202999836 680.4268467425729 0 0 0
265 1 1 0 661.1905556907194 645.5895295316149 674.2567404645387 0 0 0
266 1 1 0 649.8684986758387 676.542678773229 639.994572553416 0 0 0
267 1 1 0 668.7359362973369 681.2394747289947 640.1845585510415 0 0 0
268 1 1 0 671.0189994716993 664.8529465271978 683.2322547463269 0 0 0
9563 1 1 0 669.6399758052358 686.22866938313 678.7333328316296 0 0 0
270 1 1 0 667.7842465402114 641.2065022232402 679.302272216714 0 0 0
271 1 1 0 660.3477672974798 673.9749250492965 682.4572634364333 0 0 0
272 1 1 0 643.6257767471735 654.0894371345834 643.514316462207 0 0 0
273 1 1 0 651.6736045464846 681.4130350331511 679.4504491737598 0 0 0
8395 1 1 0 640.9512081751909 643.7607984383053 639.3603086022655 0 0 1
275 1 1 0 645.6161041516864 665.9046471543606 640.013971223651 0 0 0
276 1 1 0 668.8197074411004 680.231010858598 641.1679041871062 0 0 0
277 1 1 0 677.6186183986462 655.695492465943 639.958574691009 0 0 0
278 1 1 0 658.3412430020978 686.0915195407446 643.0391752068173 0 0 0
279 1 1 0 675.9791587016274 646.3802848438203 670.7770817353806 0 0 0
280 1 1 0 676.1841656175493 652.6346081090209 641.0020077412228 0 0 0
281 1 1 0 667.753572350442 682.7045443232461 641.8315486542915 0 0 0
282 1 1 0 666.1823521862373 641.7125356313907 677.5766831724766 0 0 0
283 1 1 0 660.399016139334 644.4626944381312 674.5973638130075 0 0 0
284 1 1 0 678.9202087718659 640.7637869579618 643.3731279083057 0 0 0
285 1 1 0 640.5413512586098 664.064856252884 646.5371452449799 0 0 0
286 1 1 0 681.9889569094412 640.4095292643408 673.9582845398577 0 0 0
287 1 1 0 641.0282081412165 666.9657776892539 670.6181675100254 0 0 0
288 1 1 0 685.6234985535698 649.6111776673232 669.2758184891901 0 0 0
289 1 1 0 648.3490168110774 673.9374108356755 639.9350957426186 0 0 0
290 1 1 0 679.8430754252282 642.0796468456733 670.0451908463031 0 0 0
291 1 1 0 655.2876645579024 641.3790344988529 641.7566914957567 0 0 0
292 1 1 0 652.5130065365729 685.7305550399417 649.875211898991 0 0 0
293 1 1 0 655.5374602491739 651.1853040716659 639.5559792326557 0 0 0
294 1 1 0 684.688726614767 680.738916850384 684.2547182822209 0 0 0
295 1 1 0 666.6585428374532 640.8031104084337 678.5563223491492 0 0 0
2994 1 1 0 681.5977017860336 652.831915865225 639.1096494803131 0 0 0
297 1 1 0 658.724419773595 652.906906954576 644.0002677780064 0 0 0
298 1 1 0 667.6116129415573 685.3772247891521 683.1333836062178 0 0 0
299 1 1 0 657.1099072209894 646.2856300577529 672.6134101216134 0 0 0
300 1 1 0 647.3838127679528 684.1044680472716 679.2031518864529 0 0 0
301 1 1 0 664.9682876637689 656.8231574179244 643.7878186917925 0 0 0
302 1 1 0 664.0361496941217 655.8279851380936 644.1622896935773 0 0 0
303 1 1 0 663.7501505005689 655.5177059828219 645.4757267795607 0 0 0
304 1 1 0 662.0271560377104 654.0494837886399 644.7416993060848 0 0 0
305 1 1 0 662.6667947286912 654.7053941331689 645.7986113756629 0 0 0
306 1 1 0 660.7148239268503 653.5599572848326 644.9299398311134 0 0 0
307 1 1 0 660.0683222154344 653.9027940220301 646.1219482405079 0 0 0
308 1 1 0 657.9994027562468 653.479514698791 645.037676955195 0 0 0
309 1 1 0 658.6622013063347 653.9805892585937 646.1588669776885 0 0 0
310 1 1 0 656.6313570110592 653.7016450766769 644.9666499649077 0 0 0
311 1 1 0 655.8384767442244 654.1678309630986 646.0250615811178 0 0 0
312 1 1 0 660.4776776648707 642.0372460666829 674.9228292662083 0 0 0
313 1 1 0 654.4429499428867 654.0245356419354 646.0546390435056 0 0 0
314 1 1 0 650.8637296198896 670.6215812998566 643.1260708944749 0 0 0
315 1 1 0 652.9166016969833 651.5833413307413 646.1941046036435 0 0 0
316 1 1 0 664.3476051968054 656.2723405517238 646.4919597612544 0 0 0
317 1 1 0 663.8591685419772 656.2731030667643 647.837175550575 0 0 0
318 1 1 0 662.0501233031517 654.86833655969 647.0380897201884 0 0 0
319 1 1 0 662.6662537823995 655.5486781743451 648.0803697702046 0 0 0
320 1 1 0 660.7267389989918 654.522142952731 647.1722591758415 0 0 0
321 1 1 0 660.0665493132667 654.8131655550385 648.3315262927277 0 0 0
322 1 1 0 657.9964722807812 654.5608584775615 647.2031233146276 0 0 0
323 1 1 0 658.6662365980387 654.6793788793984 648.443707087932 0 0 0
324 1 1 0 656.5606366937787 654.6180400315985 647.1621867568701 0 0 0
325 1 1 0 655.8777445683676 654.5566414701422 648.434274405488 0 0 0
326 1 1 0 653.7111030151908 653.9779110101496 647.3284029279669 0 0 0
327 1 1 0 654.6189306319291 653.8583756909345 648.418181879007 0 0 0
328 1 1 0 662.136669440007 655.5986218089866 649.4274108335856 0 0 0
329 1 1 0 662.9163792710876 656.4336778288422 650.2898508263801 0 0 0
330 1 1 0 660.7866217304685 655.012076697917 649.5810229196888 0 0 0
331 1 1 0 660.0638557347103 654.4453847883306 650.6896670029413 0 0 0
332 1 1 0 657.9252332827423 654.450787436486 649.6764096930638 0 0 0
333 1 1 0 658.6875455920597 653.9276624750171 650.7419793192172 0 0 0
334 1 1 0 656.5359897662684 654.5210999311606 649.6498516844335 0 0 0
335 1 1 0 665.7397185003416 657.4322092443751 644.7614538121488 0 0 0
336 1 1 0 666.2309882694387 657.3957844254495 647.2636162737991 0 0 0
337 1 1 0 667.2717035025846 655.9974468543274 648.9618114282816 0 0 0
338 1 1 0 665.4360067083092 657.1221897511357 646.1394516377956 0 0 0
339 1 1 0 666.1099349450697 656.5936849628017 648.441367832968 0 0 0
340 1 1 0 664.7648934016871 656.6335227590587 648.9459727595913 0 0 0
341 1 1 0 664.1809293593187 657.1474147680555 650.1775380830035 0 0 0
342 1 1 0 676.5224026907002 650.280692722813 650.0469027564494 0 0 0
343 1 1 0 675.6368660526426 650.895559188226 649.0940509821219 0 0 0
344 1 1 0 676.0282484161319 650.4587156538461 647.8288898756092 0 0 0
345 1 1 0 675.2234381560427 649.8080591324466 646.8059602887024 0 0 0
346 1 1 0 675.8956030247186 648.7804563111521 646.061836293245 0 0 0
347 1 1 0 674.6227311378373 650.7975961938265 645.9936322808398 0 0 0
348 1 1 0 677.2678858734414 648.918574927711 645.4344938464005 0 0 0
349 1 1 0 677.3748420674992 649.7599361925 643.9571078457226 0 0 0
350 1 1 0 675.7406148174994 651.4604943292973 645.3843316067088 0 0 0
351 1 1 0 675.938033926466 652.7866161586405 645.9227532415975 0 0 0
352 1 1 0 676.576671727034 651.0571777537394 644.3105944766212 0 0 0
353 1 1 0 676.7921952222069 652.2329435499732 643.5178006188213 0 0 0
354 1 1 0 675.5605268358895 653.7957344310925 645.0855083215476 0 0 0
355 1 1 0 674.497642054658 654.6698918331778 645.2200852176463 0 0 0
356 1 1 0 675.8397000457376 653.4028368993908 643.6520909285041 0 0 0
357 1 1 0 676.0763746807864 654.6787889768494 642.9750242681139 0 0 0
358 1 1 0 673.9451325847831 655.3146057394878 643.9548216829804 0 0 0
359 1 1 0 673.6075819772448 656.7162393172281 644.3347104504783 0 0 0
360 1 1 0 675.1233590531612 655.6376085659981 643.0719643737208 0 0 0
361 1 1 0 675.0033210326397 656.6368978638369 642.1550780661127 0 0 0
362 1 1 0 673.5353862215405 657.819260267593 643.4965962386972 0 0 0
363 1 1 0 672.4358283700249 658.7036645896175 643.8384735981717 0 0 0
364 1 1 0 685.8685244813136 645.9247881596393 678.4199745607285 0 0 0
365 1 1 0 678.8996116463612 639.9558360088604 648.2831131118617 0 0 0
366 1 1 0 671.596091041255 677.2338481901638 640.5869613069792 0 0 0
2016 1 1 0 678.747000924005 682.8977410321793 639.8890335076698 0 0 0
368 1 1 0 670.4896268864627 659.601433766987 642.9940565735477 0 0 0
369 1 1 0 639.1414400206459 658.3752470888408 683.045522930435 0 0 0
370 1 1 0 669.1597642829066 666.8992766511167 645.8864864350519 0 0 0
371 1 1 0 655.208201430729 644.9101120614112 643.1441371949809 0 0 0
372 1 1 0 640.9572266990082 669.238013217713 680.8762398229742 0 0 0
373 1 1 0 682.9796836545022 650.6119336790981 650.9894874817188 0 0 0
374 1 1 0 685.6881506695281 651.4260227257016 650.0466436085371 0 0 0
375 1 1 0 680.2928275858155 685.0851355378458 680.8733296185411 0 0 0
11496 1 1 0 651.3149826582252 685.8318879277255 671.7501881745964 0 0 0
12937 1 1 0 656.2615950802715 639.4718466422561 671.1137399410328 0 1 0
516 1 1 0 686.2300126598213 677.6408272558738 685.2494544655426 0 0 0
379 1 1 0 653.6074337652731 684.1137675264025 640.7113229734853 0 0 0
380 1 1 0 644.0867507123625 641.4811109298514 640.4144419234007 0 0 0
381 1 1 0 678.6356715495878 649.1478043246414 650.2785559145957 0 0 0
382 1 1 0 680.6567523511545 650.4954890562606 650.7382478157243 0 0 0
383 1 1 0 683.2275021979038 651.2984823315936 649.7320840815859 0 0 0
384 1 1 0 684.4933843432462 651.6556910887824 649.3032178312254 0 0 0
385 1 1 0 677.8924552350214 650.3025016771634 649.7699758718454 0 0 0
386 1 1 0 678.3489631872714 650.8323395824326 648.5573385009246 0 0 0
387 1 1 0 680.8753704772776 650.738340242114 649.3250305878157 0 0 0
388 1 1 0 679.7033535124591 651.040234112019 648.33060838734 0 0 0
389 1 1 0 682.1767629610055 651.5342785468507 648.886922168398 0 0 0
390 1 1 0 682.3874830954958 651.7677851512458 647.566962033409 0 0 0
391 1 1 0 684.7046081348178 652.2225841213623 648.042105969507 0 0 0
392 1 1 0 683.6295568322087 652.2986068971902 647.1793400462059 0 0 0
393 1 1 0 677.4522379204914 650.5610174299566 647.4927923089817 0 0 0
394 1 1 0 677.9854456309424 650.104732837656 646.2393245185459 0 0 0
395 1 1 0 680.2268230055063 650.6770781530147 646.890057705159 0 0 0
396 1 1 0 679.2265151652566 650.5730351659699 645.8320608584519 0 0 0
397 1 1 0 681.4650834853906 651.5141828197058 646.5421075395774 0 0 0
398 1 1 0 681.6582072388755 651.8141999225818 645.2340224968946 0 0 0
399 1 1 0 683.8773915909187 652.5975477622841 645.8346810018912 0 0 0
400 1 1 0 682.9225614588069 652.351393153491 644.8722910537324 0 0 0
401 1 1 0 679.5341139421076 650.8748360337418 644.541853637872 0 0 0
402 1 1 0 678.7247749906403 650.4238575502212 643.5250959816249 0 0 0
403 1 1 0 680.718225165609 651.574171366449 644.1956379261615 0 0 0
404 1 1 0 680.9560669627891 651.9480361747475 642.8682107880577 0 0 0
405 1 1 0 683.1505474452857 652.8373703178348 643.5687817191318 0 0 0
406 1 1 0 682.0907964459833 652.718168459951 642.6509580536102 0 0 0
407 1 1 0 678.7033047103096 651.1104163645904 642.1313267429507 0 0 0
408 1 1 0 677.6499087601555 652.2207530719372 642.4549367095432 0 0 0
409 1 1 0 679.9881389098379 651.8918912265219 641.8766467326474 0 0 0
410 1 1 0 679.9262623754947 653.0259551889077 641.0307773868698 0 0 0
411 1 1 0 682.2464486211506 653.4559499017329 641.4552872213268 0 0 0
412 1 1 0 681.2440252787842 653.5249860787308 640.41131598614 0 0 0
413 1 1 0 677.5149903809695 653.4009504685662 641.4806638570959 0 0 0
414 1 1 0 676.814119599904 654.6749876272878 641.893842364685 0 0 0
415 1 1 0 678.8514278562901 653.7798763156217 640.8569468288296 0 0 0
416 1 1 0 640.3698109772284 675.8812118915328 678.2660972008603 0 0 0
417 1 1 0 659.1475109074545 639.6132676853671 675.2020859577857 0 0 0
418 1 1 0 639.9093641926901 658.5519378497206 678.7724217791072 0 0 0
419 1 1 0 646.3218241227041 655.037543992401 684.8656292077507 0 0 0
420 1 1 0 641.0689697811827 673.693110569706 678.8298018766354 0 0 0
421 1 1 0 675.6758297562886 656.570310949618 640.9441286886841 0 0 0
2918 1 1 0 639.3126321873385 652.5987077919856 670.6692152577242 0 0 0
423 1 1 0 684.591683017647 641.8317720105636 680.2841425017607 0 0 0
424 1 1 0 647.819314784296 650.838336717438 679.5073150923131 0 0 0
4014 1 1 0 638.9493525503592 657.1845922184287 641.4570673135692 0 0 0
426 1 1 0 662.9372701340378 679.9954611100209 684.9642723461872 0 0 0
427 1 1 0 660.879671030057 680.0643996390563 681.845952667394 0 0 0