LAMMPS data file via write_data, version 2 Aug 2023, timestep = 50000, units = metal

35556 atoms
1 atom types

627.9163675020461 744.7716314979536 xlo xhi
628.3719832870519 745.0250157129686 ylo yhi
628.4658712602164 744.9311277398041 zlo zhi

Masses

1 12.0107

Atoms # full

1 1 1 0 667.8291942457591 641.8828982087301 636.9109317915985 0 0 0
4297 1 1 0 651.2054800201541 658.4620694476228 629.0183798347805 0 0 0
3 1 1 0 635.3519628206875 654.6077512555122 665.9953547400778 0 0 0
4 1 1 0 636.8498503820888 653.909422160445 661.6686408522366 0 0 0
5 1 1 0 633.8339537667143 666.2646494958984 681.0605975303657 0 0 0
6 1 1 0 637.1698492262543 678.3295311428119 636.5147551940953 0 0 0
7 1 1 0 654.6452550398055 668.1147542703056 630.57598057315 0 0 0
8 1 1 0 638.3491631418921 650.8357665851195 656.1846280529547 0 0 0
9 1 1 0 654.9686062212352 633.1347199515295 664.6152753567472 0 0 0
10 1 1 0 633.3809584777998 665.4325224132263 684.9300824502816 0 0 0
11 1 1 0 636.3309188536002 654.4797439674304 662.8094845686443 0 0 0
12 1 1 0 633.3343787979194 657.9987411650941 682.6235806870734 0 0 0
13 1 1 0 632.8116166398307 678.0944645774691 634.3663685116046 0 0 0
14 1 1 0 637.873479350736 648.1897733870006 650.5141450052427 0 0 0
15 1 1 0 633.1195767699335 646.6019246230851 630.8505965987366 0 0 0
16 1 1 0 630.7688532362405 632.4581920835265 646.3787043907766 0 0 0
17 1 1 0 638.020531205818 653.0589620249552 659.324219305449 0 0 0
18 1 1 0 638.6315000646687 652.3295149625294 658.2752377518643 0 0 0
19 1 1 0 631.4808357777159 678.4061639551179 634.106619448201 0 0 0
20 1 1 0 634.4539939538487 646.6688371192979 630.275316902071 0 0 0
21 1 1 0 633.3599882323242 678.6430642606615 635.5639835538838 0 0 0
22 1 1 0 639.0098512787669 670.364368447546 684.7762211061689 0 0 0
23 1 1 0 663.4664416553231 631.118921711596 674.7150083464604 0 0 0
24 1 1 0 663.6269641112262 632.9517851761218 648.9466615833239 0 0 0
25 1 1 0 636.8402564507286 652.5075065294992 659.8237454886026 0 0 0
26 1 1 0 636.4780671402501 662.7396904978101 680.2830308880116 0 0 0
27 1 1 0 668.656997987732 637.6103569578586 630.2569300484311 0 0 0
28 1 1 0 667.7784848338227 629.9760202204274 659.7896905821711 0 0 0
22448 1 1 0 685.1543013313582 683.4521791546723 659.9714768394183 0 0 0
30 1 1 0 636.8884788962868 630.4334749125827 638.7081364185979 0 0 0
31 1 1 0 636.1497674522218 650.2639063154863 650.9043394118268 0 0 0
32 1 1 0 683.7927198184397 649.8923522912587 629.619263883565 0 0 0
33 1 1 0 662.2961220136278 634.7022950683784 663.1156241906574 0 0 0
9504 1 1 0 668.3881097540585 628.9147708111068 648.7073813611921 0 1 0
35 1 1 0 628.8384910202471 676.6768921570381 636.1038613576243 0 0 0
36 1 1 0 674.5319414893876 657.7811984062005 685.6022792230142 0 0 0
37 1 1 0 633.8548252408029 656.9368320423797 683.3737488566163 0 0 0
3209 1 1 0 659.4561260712453 644.4996161150226 629.3210243528985 0 0 0
39 1 1 0 662.6382871955784 637.2325125344066 663.1823754932615 0 0 0
40 1 1 0 635.8641843674542 678.249754690097 632.4278659629329 0 0 0
41 1 1 0 635.0685133512899 677.9691392803884 633.5728758987402 0 0 0
42 1 1 0 639.4726357042678 665.4464533084428 684.7353555941203 0 0 0
43 1 1 0 637.0390895419885 678.9715980670915 632.6548824804044 0 0 0
12301 1 1 0 669.1536068979597 628.9977968252052 661.5660034811098 0 1 0
45 1 1 0 634.4176679010493 653.0411614501564 662.6185407701117 0 0 0
13318 1 1 0 646.0662506046455 628.8905551387242 679.9635639466512 0 1 0
47 1 1 0 634.0214646330116 652.355486812899 660.3146550119802 0 0 0
13369 1 1 0 633.0020072833512 630.1445879929498 674.8168212819313 0 1 0
10258 1 1 0 675.9792730709502 628.443820320799 634.9720852239853 0 1 0
50 1 1 0 629.9837098597981 645.8214957530827 650.0718682418108 0 0 0
51 1 1 0 682.4785853100402 662.4644679108543 686.0352947253165 0 0 0
52 1 1 0 636.0469545014502 651.8125255265356 658.9616826639215 0 0 0
53 1 1 0 633.7260027958328 677.6418587383183 633.4327055106507 0 0 0
54 1 1 0 668.7657323976964 638.0232814104747 633.963969342937 0 0 0
55 1 1 0 638.1412089899234 648.5837387285325 652.0102205772108 0 0 0
56 1 1 0 675.4210021848579 643.723280231217 646.222244190835 0 0 0
57 1 1 0 637.8594578606994 629.3820483534795 638.9310378172753 0 0 0
58 1 1 0 665.2999396900262 635.0087545256105 656.7142408654499 0 0 0
59 1 1 0 637.8124364427728 678.8246247042675 633.8873221357616 0 0 0
60 1 1 0 637.0025141501308 678.5049766871856 635.0625964338928 0 0 0
61 1 1 0 633.7302598508757 677.5116842241454 637.8765269724746 0 0 0
62 1 1 0 632.4007893992826 670.6823021899407 685.1968503539428 0 0 0
63 1 1 0 630.3589052554116 652.9204065777598 663.1052570101156 0 0 0
64 1 1 0 635.2944674885704 653.8048188374488 663.4741107392749 0 0 0
22241 1 1 0 628.8455316472972 679.7514177197918 676.3607759906794 1 0 0
66 1 1 0 628.9279005904162 656.8013265668841 653.7501917938396 0 0 0
67 1 1 0 650.4240410788578 631.1358378377378 667.7187773673797 0 0 0
68 1 1 0 630.7295504601864 679.3704182243703 634.8381952284001 0 0 0
69 1 1 0 673.0082873217106 631.9712508172179 629.3737629837841 0 0 0
70 1 1 0 664.8303612030153 629.9075558119018 676.3531445550989 0 0 0
19342 1 1 0 628.1061002350851 685.1134923593336 684.0848205329094 1 0 0
9855 1 1 0 639.3504547262396 628.993727941091 676.0015568884987 0 1 0
2460 1 1 0 666.4320103295795 686.0596111668042 680.0260892340223 0 0 0
74 1 1 0 638.8574151393225 651.0944417974789 629.1394658049604 0 0 0
75 1 1 0 663.8003335658134 630.8735384071745 676.094510718057 0 0 0
3141 1 1 0 685.6649647417121 653.338919251771 656.1995242196684 0 0 0
77 1 1 0 639.4451247727791 650.0139752325354 655.7013742941331 0 0 0
78 1 1 0 639.261427037979 679.1044178683374 633.6191980476233 0 0 0
79 1 1 0 652.8469449558604 667.1926637276576 632.3229247481969 0 0 0
80 1 1 0 630.9978901934529 677.8762803360631 632.9456984316483 0 0 0
81 1 1 0 636.2584441535705 655.693744528856 674.0824323985145 0 0 0
82 1 1 0 640.5700137518746 658.325335030074 684.7941464091992 0 0 0
83 1 1 0 671.6171613271524 640.5769703561682 632.4279074531161 0 0 0
84 1 1 0 640.4337994208215 678.4730515096726 634.2371409076073 0 0 0
85 1 1 0 639.343709675304 649.6974170720262 654.1511267957002 0 0 0
86 1 1 0 631.9512423864394 647.2592970846008 630.0623565348185 0 0 0
87 1 1 0 653.1341632656408 636.1628298183319 668.2641018752004 0 0 0
88 1 1 0 655.8846761051738 633.1517880248279 669.3827977845281 0 0 0
89 1 1 0 684.2059483682588 661.1379955450715 679.0773334742701 0 0 0
18326 1 1 0 628.3974480645563 685.0996680715851 657.8221025168957 1 0 0
91 1 1 0 641.5938777608995 678.3215818599514 633.472917124778 0 0 0
92 1 1 0 670.8232433451732 632.4679472225326 645.0558788320859 0 0 0
93 1 1 0 662.695709930319 638.9358456971788 655.2084124479105 0 0 0
94 1 1 0 647.3454724852752 629.933678911973 673.272182998069 0 0 0
95 1 1 0 633.1942121408723 677.4120663869593 632.1543739593736 0 0 0
96 1 1 0 681.2411079597301 658.2007600927967 674.8706199697313 0 0 0
97 1 1 0 678.4284035378128 659.8004734266615 675.5168025622667 0 0 0
4168 1 1 0 635.4409719154186 670.9165903893482 686.4328257879193 0 0 0
99 1 1 0 667.8816077248794 630.1214342433102 653.5876808674426 0 0 0
2106 1 1 0 685.924070458154 653.5376616153775 639.1499086821648 0 0 0
101 1 1 0 636.3026178440819 652.7839120656607 661.0710653074852 0 0 0
102 1 1 0 636.3335775012957 656.6928586768558 668.1780087144562 0 0 0
103 1 1 0 677.8361185158423 633.1962170236532 629.7186226247919 0 0 0
536 1 1 0 685.1238289903959 653.2181155304112 633.0893048864098 0 0 0
105 1 1 0 676.7546899932865 657.2977316537839 674.2199258143356 0 0 0
106 1 1 0 665.3294262581261 634.8839221611189 658.1161232606956 0 0 0
3398 1 1 0 663.3605266644106 686.1221799992355 683.1131645320866 0 0 0
108 1 1 0 635.359814523751 659.4466611370221 672.395866083601 0 0 0
109 1 1 0 674.4663143062561 633.2747300407686 630.6236536205413 0 0 0
506 1 1 0 683.0807773856707 686.3929458295195 658.8893957190594 0 0 0
111 1 1 0 669.8415057726486 641.9304805799703 631.5736308178664 0 0 0
2130 1 1 0 666.661363877689 628.5815627874914 669.4365830746377 0 0 0
113 1 1 0 633.3925748302375 654.5635214673234 664.5734376616875 0 0 0
114 1 1 0 630.0496765070254 680.8128047826666 640.9664179369198 0 0 0
115 1 1 0 652.7025243734762 631.847461494876 666.8950339107769 0 0 0
116 1 1 0 654.0251877116452 633.4339482749116 665.5422879035808 0 0 0
117 1 1 0 637.989916262612 651.3542325770976 657.4830875637268 0 0 0
2778 1 1 0 669.0508471597834 638.1430263570164 629.0360789550099 0 0 0
119 1 1 0 636.2043734944367 683.7123575721265 649.1285043933777 0 0 0
120 1 1 0 630.7723003059322 666.846949676348 685.1029326178746 0 0 0
121 1 1 0 684.9812878247781 653.948863923989 645.1193084688423 0 0 0
122 1 1 0 631.8307047811596 632.5643042946419 680.6957991915748 0 0 0
331 1 1 0 655.3740851917136 655.5324004004428 685.7657188647504 0 0 0
19305 1 1 0 686.1643769941631 654.9226507003204 631.780557945925 0 0 0
125 1 1 0 634.6478150677115 678.2444074385047 635.8857165458634 0 0 0
126 1 1 0 630.7981599391106 652.4328071942343 661.8792172677621 0 0 0
127 1 1 0 632.3424017550099 678.978104749882 636.5415257079344 0 0 0
128 1 1 0 655.5352413195794 633.8407386347404 663.5753754877023 0 0 0
3651 1 1 0 663.3938871771934 666.9350580838097 686.088942046633 0 0 0
130 1 1 0 635.6189157399722 678.1671703408502 634.8117966556196 0 0 0
131 1 1 0 655.4030696883426 667.0175311268617 630.1331731995167 0 0 0
132 1 1 0 643.5017988062077 651.7236753683642 629.882427875134 0 0 0
133 1 1 0 683.3657953718066 648.8905740956908 645.8328022609512 0 0 0
134 1 1 0 657.4153522026987 634.5830508040688 661.715659381297 0 0 0
135 1 1 0 670.6710957869581 636.325598168405 630.2011875494552 0 0 0
136 1 1 0 631.0163979408197 672.390095065525 684.2502074676593 0 0 0
137 1 1 0 636.4613084667253 663.3041687767012 686.1123642614803 0 0 0
4153 1 1 0 628.3631265470756 674.8884377255739 638.3594582775227 0 0 0
12177 1 1 0 646.9037524198085 628.469285959889 669.421583027743 0 1 0
140 1 1 0 630.8634540866619 679.4315240192494 679.7834644929098 0 0 0
141 1 1 0 656.538616773532 681.1657565767948 677.9918775943027 0 0 0
142 1 1 0 630.4639502486056 682.1365741639086 648.3440870311434 0 0 0
143 1 1 0 668.1157655780427 631.2437598642147 649.891439361021 0 0 0
144 1 1 0 633.2495438318263 663.2664971763459 684.026260656708 0 0 0
21924 1 1 0 628.3701065357517 668.2995932777426 678.2962222080754 1 0 0
146 1 1 0 667.4755454232585 631.3790535563808 653.2564009383836 0 0 0
147 1 1 0 636.5845561388871 656.0552665491642 671.7033526527335 0 0 0
752 1 1 0 685.7842461811439 664.7407330984768 682.2231944925818 0 0 0
149 1 1 0 668.3007202833089 637.2216562079612 632.9335808555423 0 0 0
150 1 1 0 654.0092372280377 664.1342777373006 630.1639507648831 0 0 0
151 1 1 0 654.0960238053616 639.2416119322291 662.7417404765831 0 0 0
152 1 1 0 662.7548300730928 630.2418750848125 662.652064631685 0 0 0
153 1 1 0 683.5022174827396 684.891640138368 658.9569533093437 0 0 0
154 1 1 0 660.18151627295 638.1598337633867 651.5965672521241 0 0 0
155 1 1 0 653.4431170645734 638.3680261137362 663.717970833032 0 0 0
156 1 1 0 654.8200758141946 634.1648634201455 668.8624930042499 0 0 0
157 1 1 0 656.7729047915195 667.0884580746856 630.391457612694 0 0 0
158 1 1 0 631.1413529509706 679.5953813368228 636.1771824521647 0 0 0
159 1 1 0 667.0737634296466 639.780881739572 633.5745118397759 0 0 0
160 1 1 0 629.8184340279957 668.9534606095804 680.1160140525059 0 0 0
161 1 1 0 631.3325027042413 676.8580510054836 630.7512499348531 0 0 0
162 1 1 0 634.7383830534633 654.0752487443303 664.75630261199 0 0 0
4084 1 1 0 632.9441285025277 686.2606205811388 651.8117218183207 0 0 0
164 1 1 0 634.9601943117095 652.571842365811 661.3744863595604 0 0 0
1094 1 1 0 633.2042457013104 670.2625022492983 686.2054691428684 0 0 0
166 1 1 0 660.1364986489048 636.7688098918989 668.2904133640379 0 0 0
167 1 1 0 632.1767613597078 678.0339765529754 637.5959546505286 0 0 0
168 1 1 0 651.5828744646732 630.5740322202855 668.5336947721067 0 0 0
169 1 1 0 680.7235512432886 657.4640364677276 676.0827659150087 0 0 0
170 1 1 0 657.0386014239277 636.6267297967075 659.9842272246894 0 0 0
171 1 1 0 676.1485276753599 657.8543860594959 677.0759019670027 0 0 0
4055 1 1 0 659.0538029085956 643.1431717697402 628.9997765927859 0 0 0
3370 1 1 0 686.3215764206642 653.0836926568004 648.46528828455 0 0 0
1223 1 1 0 652.8203630907473 684.1550010728864 628.9361130524447 0 0 0
175 1 1 0 633.1921882262733 629.8622430503368 643.8129504519459 0 0 0
176 1 1 0 657.4034403679829 680.5282718801438 680.9381176989457 0 0 0
177 1 1 0 642.4372255279616 686.0404774102776 655.9314376552268 0 0 0
178 1 1 0 668.6768903218668 631.254804733519 651.1475797272229 0 0 0
179 1 1 0 671.6828820119622 630.3536427865923 631.5268688303862 0 0 0
180 1 1 0 671.711229904317 631.6336929452133 632.0721276033681 0 0 0
181 1 1 0 671.0082075710858 630.8670943095369 634.1680590358378 0 0 0
182 1 1 0 670.9012862729155 631.8964994378587 633.1857446556676 0 0 0
183 1 1 0 671.1478321173757 631.4276440512923 635.4499146317442 0 0 0
184 1 1 0 670.1571874621334 632.3483023386623 635.8569273071112 0 0 0
185 1 1 0 670.1331210405907 631.9175714775572 638.0959917584104 0 0 0
186 1 1 0 669.5610198227473 632.5542507244538 637.083702798353 0 0 0
187 1 1 0 673.2476183147921 632.6159520734582 630.6739578883611 0 0 0
188 1 1 0 660.1963429595031 636.4128844627402 662.826536698233 0 0 0
189 1 1 0 672.7305125688864 632.4658292325555 631.8846087627822 0 0 0
190 1 1 0 673.4397387140765 633.1090462205731 633.119206275507 0 0 0
191 1 1 0 670.9904934546043 633.2250428188717 633.7931516594298 0 0 0
192 1 1 0 672.2894330843294 633.81322108904 633.9502688943171 0 0 0
193 1 1 0 670.1121712764093 633.4385000949537 634.8937389463105 0 0 0
194 1 1 0 670.1023731742328 634.6709623365884 635.5725427045675 0 0 0
195 1 1 0 668.8758392550367 633.751699376019 637.4422324111772 0 0 0
196 1 1 0 669.4682788673922 634.8259503987612 636.7717554368613 0 0 0
197 1 1 0 674.5699757547726 634.3962383758138 631.365879365685 0 0 0
198 1 1 0 673.9116511817513 635.4629096694841 630.7468548861233 0 0 0
199 1 1 0 674.3929378687867 634.2522462896052 632.7413895805463 0 0 0
200 1 1 0 674.3770424215836 635.4204458909109 633.4500613453204 0 0 0
201 1 1 0 672.4823371242265 634.8805173274728 634.7581471496219 0 0 0
202 1 1 0 673.64916506792 635.6252892292755 634.6712531294489 0 0 0
203 1 1 0 671.1919653051787 635.6316676264732 635.1301381451314 0 0 0
204 1 1 0 671.6978524539795 636.5052932415325 636.2895862361216 0 0 0
205 1 1 0 669.5867999165388 636.0599599448202 637.438067369351 0 0 0
206 1 1 0 670.732418331852 636.8075689857578 637.2472193265545 0 0 0
207 1 1 0 674.0762013163344 636.6984269833383 631.3220230246297 0 0 0
208 1 1 0 674.6408047242937 636.5475439445928 632.6940352303193 0 0 0
209 1 1 0 673.9436986818065 636.85438190971 635.4210927734465 0 0 0
210 1 1 0 672.855071158083 637.3030337302584 636.2247996647354 0 0 0
211 1 1 0 670.7861962867294 638.0004958785223 637.8647376325426 0 0 0
212 1 1 0 669.574785860305 631.9091651407928 639.3829553096316 0 0 0
213 1 1 0 664.1248032212734 634.645140820154 665.5957444851578 0 0 0
214 1 1 0 684.8936848794779 661.9145149342423 676.8624657972989 0 0 0
215 1 1 0 662.4849790999015 659.2774827876519 685.2327286457729 0 0 0
216 1 1 0 652.538172245011 634.8138765221101 668.2600256975935 0 0 0
217 1 1 0 657.0758136344448 633.1106912676588 666.7803067155759 0 0 0
218 1 1 0 684.0569621307847 653.6615873182051 647.7595047609491 0 0 0
219 1 1 0 660.8854201432988 630.4104244167307 674.0973469129665 0 0 0
220 1 1 0 667.576161275434 634.3172257251026 641.4317536603438 0 0 0
221 1 1 0 633.8098061252799 683.0672258888594 647.7985354060177 0 0 0
222 1 1 0 678.2182357914863 654.6103437814313 674.6514775027678 0 0 0
223 1 1 0 629.4812502817127 630.7930169486523 644.4259364409127 0 0 0
224 1 1 0 668.760377659883 636.2539544423745 638.6188259773656 0 0 0
225 1 1 0 638.5693006022947 685.552003632831 649.8369972670152 0 0 0
226 1 1 0 668.8534723012922 641.2571997113448 636.1998827234436 0 0 0
227 1 1 0 655.0413512746146 679.1590038247007 677.6375251722773 0 0 0
228 1 1 0 667.9781583834043 643.4681457221421 633.3292071740118 0 0 0
229 1 1 0 636.9210511156369 658.4997202255875 682.6909596284169 0 0 0
230 1 1 0 669.6228899162891 638.4466670393134 638.5168737938117 0 0 0
231 1 1 0 682.5724437448237 659.162579088983 676.6864952798163 0 0 0
232 1 1 0 681.5486860506895 657.1436647001527 677.1534851091128 0 0 0
233 1 1 0 673.6386247031014 638.0509167143028 630.9179039068778 0 0 0
234 1 1 0 674.9791585893593 637.700644222897 633.4307475415404 0 0 0
235 1 1 0 674.7866087469375 637.828228135918 634.8462830354945 0 0 0
236 1 1 0 672.8126158654256 638.5472575364358 636.804740914272 0 0 0
237 1 1 0 671.6317668237718 638.9847649091146 637.3489786968199 0 0 0
238 1 1 0 673.4664990958869 638.802543600201 632.1128703219199 0 0 0
239 1 1 0 672.9051404243484 640.0216554225976 632.0886750252326 0 0 0
240 1 1 0 674.7258631203358 638.8138857899279 632.788517782105 0 0 0
241 1 1 0 675.305050283715 640.017597594028 633.1246044735939 0 0 0
242 1 1 0 674.9927307560564 639.079196007176 635.3634789970096 0 0 0
243 1 1 0 675.5837751723651 640.0498957628424 634.5362737486894 0 0 0
244 1 1 0 673.7374175659534 639.5830537274944 636.1674447773586 0 0 0
245 1 1 0 672.8204572009782 640.2968305661586 635.2221283326408 0 0 0
246 1 1 0 670.8987894030016 639.9059401826619 636.5951419962789 0 0 0
247 1 1 0 671.4189660581704 640.1811773872083 635.2627838237393 0 0 0
248 1 1 0 673.8438556155179 640.9308945929649 631.5117533190223 0 0 0
249 1 1 0 673.6849528775582 640.9814683656062 630.1227005226735 0 0 0
250 1 1 0 675.037176700192 641.1278294349248 632.3088079544628 0 0 0
251 1 1 0 675.3155992535217 642.3591089466458 632.7668101556545 0 0 0
252 1 1 0 675.7140260114896 641.3801246185114 634.9521577294648 0 0 0
253 1 1 0 675.9288704085891 642.433599014267 634.0283009168965 0 0 0
254 1 1 0 673.4273234574285 641.5194428367889 634.8770871015643 0 0 0
3319 1 1 0 633.4968941811888 679.2682678596468 629.1575786308437 0 0 0
256 1 1 0 630.0853814333974 632.9735200886067 684.5926634046991 0 0 0
257 1 1 0 684.5765598977548 685.195678040223 649.8678105821505 0 0 0
258 1 1 0 629.9929130199778 683.3706530670614 648.7667130312336 0 0 0
259 1 1 0 632.0477632888834 682.4101887561584 643.8187639951134 0 0 0
260 1 1 0 654.4897086093081 636.2993329608921 667.8431800438169 0 0 0
261 1 1 0 669.6183253440566 640.249386794303 636.850482276039 0 0 0
262 1 1 0 656.5711408167948 681.6328886660849 680.6344407862927 0 0 0
263 1 1 0 657.1803561332935 636.7783377889416 667.1817505609787 0 0 0
800 1 1 0 640.979142364429 680.0526636377722 686.2171412008403 0 0 0
265 1 1 0 637.5543104463193 683.4700288908058 649.3358424672537 0 0 0
266 1 1 0 630.1715095775553 629.472700285256 648.463620419263 0 0 0
12904 1 1 0 632.6211804010217 629.1649984639429 673.8468244726955 0 1 0
2 1 1 0 638.9336031704424 681.8092940711805 686.3258516875378 0 0 0
269 1 1 0 629.3790512006593 667.5171279533166 677.8288274108469 0 0 0
3635 1 1 0 685.6114123519769 659.909338829086 667.7006013725685 0 0 0
271 1 1 0 635.8993319157206 685.5503510412514 653.748158842108 0 0 0
22392 1 1 0 685.7083425215975 683.2310112263508 664.8575661121603 0 0 0
273 1 1 0 661.3367761735814 683.1547518935682 674.5369045818679 0 0 0
274 1 1 0 662.8789502197117 636.9797704758245 661.6623196632837 0 0 0
275 1 1 0 667.7877685167654 640.0792650362941 638.5985927205904 0 0 0
276 1 1 0 659.3304123515865 682.723765499974 673.4176674362969 0 0 0
277 1 1 0 666.7091896943922 643.6007462739894 638.6363237797466 0 0 0
278 1 1 0 640.0883116489468 661.8507013242975 682.091953393847 0 0 0
279 1 1 0 661.4615571695107 638.290828262657 665.1950267678301 0 0 0
280 1 1 0 635.3121368876654 663.0599138494217 679.4614057289629 0 0 0
281 1 1 0 674.1797997328462 632.0384805416189 633.9998782345494 0 0 0
282 1 1 0 661.2106010044214 634.5476677109134 664.1610062525547 0 0 0
283 1 1 0 662.6478164302712 643.7519055432324 630.7911306925075 0 0 0
284 1 1 0 656.1426411338307 682.4121270194275 681.820832417392 0 0 0
285 1 1 0 631.4625799206996 670.253924531213 683.0850709145358 0 0 0
9318 1 1 0 666.6786745239722 669.9965224397396 686.5769926293391 0 0 0
287 1 1 0 651.2602827824387 634.7461297440425 669.058183080751 0 0 0
288 1 1 0 652.8395640366718 631.0272673917207 668.0647254810978 0 0 0
289 1 1 0 661.5550837216919 630.7575538180037 654.1841550741718 0 0 0
290 1 1 0 665.3136760905173 632.6175096134959 646.638913768728 0 0 0
291 1 1 0 670.5647092113325 631.424460949966 647.1806046897384 0 0 0
292 1 1 0 679.020289187239 629.3979572539547 633.4754648927618 0 0 0
293 1 1 0 649.503360013228 647.6648697166708 629.1891796985889 0 0 0
13205 1 1 0 670.2208108248835 629.2493311410337 650.9562659889664 0 1 0
295 1 1 0 667.6132253950799 631.8937225365835 658.1320656601251 0 0 0
296 1 1 0 663.6628199294811 630.3068638403657 670.4858727576435 0 0 0
297 1 1 0 652.9599149178263 663.0996534785108 630.3103955275297 0 0 0
298 1 1 0 648.1189454705964 631.1141655808648 673.544930621782 0 0 0
299 1 1 0 657.0940999437607 633.2939606043288 668.284235497535 0 0 0
300 1 1 0 653.5140830619516 633.9702652070026 669.1229492147831 0 0 0
301 1 1 0 676.4699770087968 657.565266290842 675.5788892276281 0 0 0
302 1 1 0 629.8317092432056 680.4095647963268 679.8870456103008 0 0 0
303 1 1 0 635.8342932359761 651.066379477508 652.0274434802799 0 0 0
304 1 1 0 629.3296956780441 633.2066942752037 643.813951103092 0 0 0
305 1 1 0 653.6407472104887 682.2482415397353 678.4215413559893 0 0 0
306 1 1 0 632.7378880283273 663.7062211964845 677.767899454236 0 0 0
307 1 1 0 672.8768561530134 642.1819116997162 633.8316144650901 0 0 0
308 1 1 0 639.1179629335371 685.068626093719 653.4916499349607 0 0 0
309 1 1 0 629.9229621286852 676.5197441812652 683.3252863279511 0 0 0
310 1 1 0 666.0311497790756 633.7190364295066 658.601044160239 0 0 0
311 1 1 0 629.5179560827476 674.0269537921946 683.1317900341379 0 0 0
312 1 1 0 662.4009966739474 636.2185708634095 666.1702671718945 0 0 0
313 1 1 0 670.8914870785305 641.6249575456504 634.9375677756647 0 0 0
314 1 1 0 671.0570276051168 629.3519545623836 632.3061524478949 0 0 0
315 1 1 0 632.4918872041256 653.8356741923304 663.7804770772265 0 0 0
316 1 1 0 681.8614092897574 648.1282137063778 629.4702880293854 0 0 0
3245 1 1 0 676.7472245054392 661.4780053670652 686.6311292574189 0 0 0
318 1 1 0 630.1510037641369 683.8117577511815 646.3759540123025 0 0 0
319 1 1 0 655.9076600435167 638.3425066660207 664.3220565593232 0 0 0
320 1 1 0 635.2558968093945 656.8004541754299 683.1228762434537 0 0 0
321 1 1 0 633.4255308795388 655.929921994413 664.9872287225159 0 0 0
322 1 1 0 664.5747151367889 633.8466256338293 646.8232320059022 0 0 0
323 1 1 0 630.8862799590709 632.2539348476937 685.5821120364341 0 0 0
324 1 1 0 664.7345893954543 635.3529276270339 652.0885001528112 0 0 0
325 1 1 0 660.3828777379775 633.7860776810451 659.4856829810653 0 0 0
326 1 1 0 649.0066398428575 631.9609385776515 670.3210300138697 0 0 0
327 1 1 0 663.6423862022574 633.1917092156365 652.204733923613 0 0 0
328 1 1 0 632.125384560996 653.1776162292929 659.0862718991057 0 0 0
329 1 1 0 648.4466968310064 648.5775742879409 629.0400591392147 0 0 0
3218 1 1 0 661.4183930931413 686.578969647245 681.7403715239624 0 0 0
22441 1 1 0 628.4718133191085 673.6615792441844 678.3754475206405 1 0 0
22307 1 1 0 628.4855669894166 677.3509972555901 677.701549059857 1 0 0
333 1 1 0 628.8423918133537 651.1708090137311 651.7928059737367 0 0 0
770 1 1 0 628.2394134927847 630.4312079662666 679.5406912615467 0 0 0
335 1 1 0 632.094762368486 631.8342352977157 685.0972041298139 0 0 0
1040 1 1 0 681.2700923338703 664.6367293028154 686.4771935890783 0 0 0
337 1 1 0 647.4039053677438 630.4367973420419 670.9490601763305 0 0 0
34 1 1 0 639.8477437040707 668.3549816397856 685.818177937847 0 0 0
339 1 1 0 642.9467423157291 649.147822948926 629.4175808116562 0 0 0
138 1 1 0 628.6463557175946 632.6592560719845 684.8131132083004 0 0 0
341 1 1 0 647.4580738641962 649.7727996973503 629.6898547539033 0 0 0
4099 1 1 0 671.0892969318338 636.8736316511566 628.9611895986224 0 0 0
343 1 1 0 648.1546068327532 651.323269514411 629.6576823281526 0 0 0
1252 1 1 0 677.3502899896771 662.8335458655833 686.3988356278968 0 0 0
1288 1 1 0 633.783790548073 628.4803096121076 643.743786706673 0 0 0
346 1 1 0 662.1253487618783 633.9473834929837 661.7249335628256 0 0 0
347 1 1 0 633.2605960649502 668.1964314212079 682.44622346841 0 0 0
348 1 1 0 648.2493513820962 632.08089058862 672.5068459028089 0 0 0
349 1 1 0 656.3316066801962 682.5615426458936 684.3082117576018 0 0 0
350 1 1 0 656.0275012223115 655.8322034978125 683.5016315506559 0 0 0
351 1 1 0 658.7344218293562 681.0383802633899 685.3412327893692 0 0 0
352 1 1 0 665.939496192371 635.4627958170917 652.9067723721133 0 0 0
353 1 1 0 664.3567168257941 635.2662269242935 648.6711884261522 0 0 0
12565 1 1 0 633.5020603175982 628.78226848806 672.7156884576345 0 1 0
355 1 1 0 666.4608334895366 638.5453110567797 630.0141850760742 0 0 0
356 1 1 0 628.6216499978601 655.1372376691464 659.2971513866097 0 0 0
357 1 1 0 654.8106941719954 682.8308011821038 681.8180171652277 0 0 0
12909 1 1 0 633.8040781931105 629.1255896179688 679.2118239232763 0 1 0
359 1 1 0 682.1286471433533 684.5657348277448 662.0260230435639 0 0 0
360 1 1 0 628.3386979305059 629.4877135505748 651.294888225414 0 0 0
124 1 1 0 685.8929126020115 660.7279778829574 686.6459564909026 0 0 0
362 1 1 0 630.1485884091044 685.1292660473731 650.3950283535279 0 0 0
363 1 1 0 664.8195039180752 640.8305689777983 632.2495179739902 0 0 0
364 1 1 0 662.6270467596248 632.1612245932619 674.0975988134047 0 0 0
13381 1 1 0 649.7252461722195 629.0206376590883 677.4707713496033 0 1 0
366 1 1 0 682.6009117221876 685.1655856997467 664.311070467869 0 0 0
367 1 1 0 664.9245476995576 635.9785903112879 650.8440390925239 0 0 0
368 1 1 0 675.9602097813852 649.8933395724689 638.271322992547 0 0 0
369 1 1 0 674.5641855581099 649.4975649127689 638.010383001673 0 0 0
370 1 1 0 677.0743115219838 648.9413792742057 637.9106571431641 0 0 0
371 1 1 0 676.3803915854268 647.6219314224252 637.9321751535989 0 0 0
372 1 1 0 673.7264846263042 644.6844913449773 638.9214153679798 0 0 0
373 1 1 0 676.2727015007442 647.1773608014548 639.2569328552012 0 0 0
374 1 1 0 675.9360758971184 646.2724675618708 640.2748965311531 0 0 0
375 1 1 0 676.6519120793014 644.9435204541899 640.4850989942752 0 0 0
376 1 1 0 678.6755615908879 645.1263002647765 642.02820415301 0 0 0
377 1 1 0 678.2101114200985 645.2409662894482 640.6941886626761 0 0 0
378 1 1 0 679.5859764677298 646.1836204788425 642.4388301220408 0 0 0
379 1 1 0 674.2517655804545 648.3737198362476 637.0458653283016 0 0 0
380 1 1 0 672.8769145283005 647.8035674571157 636.9584447791804 0 0 0
381 1 1 0 675.2434220163765 647.3923574955647 637.0546814743888 0 0 0
382 1 1 0 674.9201707303015 646.0898010354117 636.561549123293 0 0 0
383 1 1 0 675.0682561024864 644.6440745777143 638.5947074109841 0 0 0
384 1 1 0 675.2916280383208 644.8154862679405 637.155256156087 0 0 0
385 1 1 0 676.4454375662851 644.2080314957051 639.2320249725877 0 0 0
386 1 1 0 677.566804259254 644.6341167858084 638.1612888631224 0 0 0
387 1 1 0 678.8735414567434 645.8559359485733 639.6579632680822 0 0 0
388 1 1 0 678.3653932083561 645.7151800416916 638.3746329061706 0 0 0
389 1 1 0 679.5057996358563 647.0509168396578 639.99603223477 0 0 0
390 1 1 0 679.6039878171335 648.0277149882903 639.0047253345596 0 0 0
391 1 1 0 672.6323649175594 646.8702649242673 635.8674789581136 0 0 0
392 1 1 0 671.5780020880665 646.364231522124 634.9489205764723 0 0 0
393 1 1 0 673.8281774752516 646.0916771405181 635.6291444374917 0 0 0
394 1 1 0 673.7461251078978 644.9102018545573 634.893376092288 0 0 0
395 1 1 0 675.889901494221 643.2777156678471 637.0868903773169 0 0 0
396 1 1 0 674.7419835645584 644.0452654465796 635.2100232563607 0 0 0
397 1 1 0 677.1735812059817 644.187188337377 636.8679663929452 0 0 0
398 1 1 0 677.431753263369 644.9993928712825 635.8152650330395 0 0 0
399 1 1 0 678.4270745226753 646.7053966619328 637.3210968199365 0 0 0
400 1 1 0 677.9330906225892 646.2725818220495 636.0420224187716 0 0 0
401 1 1 0 678.5675786476295 648.2675727584725 637.7084945059411 0 0 0
402 1 1 0 679.3424443800216 648.6654681781821 636.4213508655836 0 0 0
403 1 1 0 671.4763077921834 645.2128436876659 634.0938631672935 0 0 0
404 1 1 0 670.3992195218929 644.4583625617998 633.5489463802478 0 0 0
405 1 1 0 672.7924036305382 644.6489459230571 633.9417900610349 0 0 0
406 1 1 0 673.0633738600611 643.4407849042568 633.1136895431711 0 0 0
407 1 1 0 675.9061789157507 643.7415944175444 634.5167432216926 0 0 0
408 1 1 0 674.4823145947521 643.4815750414647 632.5646682321527 0 0 0
409 1 1 0 676.8427702092861 644.7996543271544 634.5437871841582 0 0 0
410 1 1 0 676.6575691936043 645.7003676444949 633.4744490342457 0 0 0
411 1 1 0 677.9829319146459 647.2037273231902 634.9792711166226 0 0 0
412 1 1 0 677.4339302690707 646.9490334025949 633.7138291092238 0 0 0
413 1 1 0 678.8892285822621 648.2649133630872 635.1468906571836 0 0 0
414 1 1 0 679.5240562079798 648.6337021736956 633.9588882735288 0 0 0
415 1 1 0 680.8496367757361 649.023311643187 634.1488706037428 0 0 0
416 1 1 0 670.6353920346775 644.0562884421659 632.1642815811321 0 0 0
417 1 1 0 669.5112673856761 643.4263025523397 631.273855881243 0 0 0
418 1 1 0 672.0864384940759 643.7882009626749 631.850580844194 0 0 0
419 1 1 0 672.8972929073034 643.9903565849211 630.640001478558 0 0 0
420 1 1 0 674.8418080967286 644.6018812997584 631.9430609438781 0 0 0
421 1 1 0 674.1378022161763 644.7475065728788 630.706107268682 0 0 0
422 1 1 0 675.912390219246 645.4248077300782 632.2654269376775 0 0 0
423 1 1 0 676.4715644252333 646.0454412430781 631.1032548795026 0 0 0
424 1 1 0 678.0067651414431 647.417307275743 632.5541380739159 0 0 0
425 1 1 0 677.5971214041377 646.8858938638912 631.3250649549432 0 0 0
426 1 1 0 679.1678725278302 648.1382053787303 632.6696101664468 0 0 0
427 1 1 0 680.0442455415829 648.1202944147782 631.5580506886425 0 0 0