LAMMPS data file via write_data, version 2 Aug 2023, timestep = 50000, units = metal

12520 atoms
1 atom types

640.5716387156243 723.6083612843862 xlo xhi
641.0052421029106 723.8837578970858 ylo yhi
640.8618875780197 724.0271124219768 zlo zhi

Masses

1 12.0107

Atoms # full

1 1 1 0 642.6582415309541 642.1236281605698 671.8381223698455 0 0 0
1442 1 1 0 664.9040898270138 682.2421839442909 643.5303863985845 0 0 0
3 1 1 0 653.6914695140139 645.0582957732154 671.9696262134613 0 0 0
4 1 1 0 674.465779033195 681.762395030561 677.8761047037467 0 0 0
5 1 1 0 672.1005683215836 643.9907743313072 652.9117534440567 0 0 0
6 1 1 0 653.6074755769113 643.4321014895653 643.4912649125401 0 0 0
7 1 1 0 659.8525515384447 642.4330360310562 662.2371982260199 0 0 0
6779 1 1 0 640.7929701053462 660.1210029824789 649.1731780233368 1 0 0
9 1 1 0 661.0818978994797 644.5143927852685 661.3273061272143 0 0 0
10 1 1 0 643.4091938980845 641.9212506711763 674.2375036449915 0 0 0
11 1 1 0 670.930348398964 641.9595586490767 642.2296576433913 0 0 0
12 1 1 0 642.0939238194563 660.5113200491157 661.0387564428363 0 0 0
13 1 1 0 651.5770719850136 644.5642163343246 644.0621355808232 0 0 0
14 1 1 0 651.4069683780064 643.7195402355312 645.1374810876239 0 0 0
15 1 1 0 653.1375569509879 642.3230471051536 644.1727288270126 0 0 0
16 1 1 0 652.2347479191926 642.551100729197 645.2070895217619 0 0 0
3307 1 1 0 643.5705154519255 644.9417280448897 641.3298509530607 0 0 1
18 1 1 0 642.338781230307 663.1373857868448 642.4700404015416 0 0 0
19 1 1 0 678.842331529881 642.2545833326768 645.349145606567 0 0 0
4028 1 1 0 644.2044156433333 641.0184418964616 654.3359686053171 0 1 0
21 1 1 0 642.7431365364658 661.6788822969405 644.6554487195402 0 0 0
22 1 1 0 668.8800558921781 647.8662597131032 679.7848419672717 0 0 0
23 1 1 0 650.1161100656395 643.6149658696418 645.6989044001081 0 0 0
24 1 1 0 649.8294579334068 642.4940042646724 646.575441031701 0 0 0
3134 1 1 0 654.4238791259751 641.5377708809627 641.2853354523019 0 0 1
26 1 1 0 650.8194863274139 641.5588062074796 646.9260762480255 0 0 0
27 1 1 0 674.9625826378893 642.9796113525472 647.9307628095227 0 0 0
28 1 1 0 641.2528611218281 672.0103745917995 671.8291791597721 0 0 0
29 1 1 0 642.2829086248717 672.1440655394555 669.7085815587099 0 0 0
30 1 1 0 641.8761694624947 670.797947031075 669.4192754082617 0 0 0
3445 1 1 0 653.6206200179956 677.668818697761 643.125298156463 0 0 1
32 1 1 0 666.958169067868 648.7464464339553 681.1283888057142 0 0 0
1727 1 1 0 666.8942079450563 647.2795272730714 640.9055904954979 0 0 0
3406 1 1 0 649.6862108563688 679.4065501005405 641.7599415296281 0 0 1
35 1 1 0 648.5653707328925 641.8893861534414 646.3617265502427 0 0 0
36 1 1 0 673.1243561318126 681.0243101066606 674.7735385544373 0 0 0
37 1 1 0 641.6398860021519 660.616671720008 644.9684929561157 0 0 0
2384 1 1 0 642.2453254508358 670.6125599601775 641.292581629132 0 0 1
39 1 1 0 667.8699200680303 646.9635729140786 643.3698644370088 0 0 0
40 1 1 0 641.5940238907767 677.9952974611464 669.0746568328085 0 0 0
41 1 1 0 660.2821413296456 650.7536884932731 641.550185830152 0 0 0
2979 1 1 0 649.6315615361842 646.0178212879911 641.2803739860401 0 0 1
43 1 1 0 641.7582930987417 660.4231988338623 663.7855780620185 0 0 0
44 1 1 0 659.7744784393192 675.7377379633627 645.5548447321925 0 0 0
60 1 1 0 675.8122619499303 682.4424105014308 677.695942443216 0 0 0
46 1 1 0 645.3395274114234 659.6381712920726 652.6564402075185 0 0 0
47 1 1 0 672.1319636420036 658.658916448404 645.7561865758603 0 0 0
48 1 1 0 670.7426391251533 642.2736932870915 647.3152421222305 0 0 0
49 1 1 0 644.0453903433742 678.4138442103151 664.8750138707085 0 0 0
50 1 1 0 652.8052499776294 644.5213568115475 643.3957142161705 0 0 0
51 1 1 0 677.612327884133 679.1300574217379 679.7734630721836 0 0 0
52 1 1 0 645.6720846296585 666.4583837139539 644.2389254650765 0 0 0
53 1 1 0 676.7279137671646 655.6516560490057 648.9878178765641 0 0 0
1100 1 1 0 641.2441883521686 659.9535972819674 643.7407379208847 0 0 0
55 1 1 0 642.3082079347655 642.5912158712586 673.2330669966626 0 0 0
2620 1 1 0 663.7768385319031 647.4455037029027 682.3477619794677 0 0 0
57 1 1 0 677.5688917399325 643.0135448886697 650.6712143050945 0 0 0
131 1 1 0 681.7109897223129 676.5366627512346 659.5860996048431 0 0 0
59 1 1 0 670.2708516567387 646.3846017426833 672.7863873648545 0 0 0
2385 1 1 0 642.8711390495118 665.7859150572276 641.481934845433 0 0 1
61 1 1 0 666.1521952747139 678.9471958465109 642.821201033909 0 0 0
62 1 1 0 643.4319206957874 662.1428389863847 648.0082655547075 0 0 0
3527 1 1 0 667.5557554752996 679.5148064146848 641.0145716463138 0 0 1
3685 1 1 0 644.6534760551725 641.6675665121397 670.3346865187129 0 1 0
65 1 1 0 664.999638774873 665.1219975639593 667.733800313617 0 0 0
66 1 1 0 662.4306801065344 665.8031321777516 668.7598257738542 0 0 0
67 1 1 0 647.2755897508727 642.2074364064936 672.2919348175291 0 0 0
355 1 1 0 640.6628554847779 660.4972073037984 642.3839394768263 0 0 0
1582 1 1 0 641.3217532903997 660.397381355183 641.1534768642063 0 0 0
70 1 1 0 656.5348191840521 646.6554119665806 642.1839679493341 0 0 0
71 1 1 0 660.9738985217363 644.5420725080867 642.1392511796018 0 0 0
72 1 1 0 656.2866968905875 645.2856005283777 642.509488070025 0 0 0
3412 1 1 0 645.4571578374997 675.5815243468888 642.1721395701009 0 0 1
74 1 1 0 656.5544913466714 641.7114845767114 642.4220557201969 0 0 0
75 1 1 0 653.7802091026555 641.8961099267477 675.9237468065506 0 0 0
76 1 1 0 667.2710193380844 645.0962813514642 661.5956009037171 0 0 0
423 1 1 0 671.0278480169542 681.9654510689959 676.407549698391 0 0 0
78 1 1 0 658.8572280735442 646.1856671743664 642.1925843261918 0 0 0
79 1 1 0 657.2907839878228 644.3644497668265 642.1767228490529 0 0 0
3488 1 1 0 642.8273586469357 681.0180551202803 642.2140282594607 0 0 1
3764 1 1 0 661.4284265487935 682.3932581300023 676.2106995342718 0 0 0
82 1 1 0 674.6061693734493 663.3730698002611 681.0740368663014 0 0 0
3270 1 1 0 674.8236591081045 664.076125927668 682.2851570637696 0 0 0
84 1 1 0 662.3687239542271 642.6331785656296 662.5769489402591 0 0 0
85 1 1 0 660.2617442829423 646.0854838119138 642.2551990031578 0 0 0
86 1 1 0 660.990262531575 644.6620626416907 681.8225354021329 0 0 0
87 1 1 0 660.194543740806 644.1526957623265 680.7267393822119 0 0 0
1732 1 1 0 658.10376616434 677.316902904854 645.0206864522717 0 0 0
89 1 1 0 665.5837392580004 642.0353395673644 662.7151822615659 0 0 0
3350 1 1 0 656.737924060753 649.062881026352 682.1043576057173 0 0 0
91 1 1 0 650.7147919706975 643.1841120089586 672.8971614036496 0 0 0
92 1 1 0 663.8139683167522 641.7511804041103 664.2155026414587 0 0 0
93 1 1 0 677.9829215279242 654.9296105435125 648.5972100084846 0 0 0
94 1 1 0 671.8187415676381 645.018589569526 664.7550431873871 0 0 0
95 1 1 0 679.3517634676022 655.2955651597874 648.2832536761638 0 0 0
96 1 1 0 644.8064357606235 660.4537217589866 642.4547577580593 0 0 0
97 1 1 0 643.1187588631451 672.9063226634827 668.8538248358428 0 0 0
98 1 1 0 675.2915017172423 657.9665026596467 647.867956252721 0 0 0
99 1 1 0 673.3022148209268 658.6275103693293 646.5811827306129 0 0 0
100 1 1 0 643.829283393661 681.2956377566674 662.3577137368394 0 0 0
101 1 1 0 674.356918866437 657.6705238135864 646.8164494400427 0 0 0
102 1 1 0 677.0621108468318 680.3689714947648 677.3093219574623 0 0 0
103 1 1 0 654.7595694846373 644.8820481231729 642.0031173106479 0 0 0
104 1 1 0 678.5428130936796 665.319021515824 654.0441301512006 0 0 0
105 1 1 0 677.8997026025891 665.9038479787689 652.843657082916 0 0 0
106 1 1 0 679.770108230075 664.6422729724525 654.0429199242479 0 0 0
107 1 1 0 680.2557081412859 664.2423931258104 652.7937306970454 0 0 0
1568 1 1 0 680.9126076047235 641.4718624161195 669.8514650823423 0 0 0
685 1 1 0 681.5825459989926 664.9562786510772 657.5344476635826 0 0 0
1862 1 1 0 655.7028570419492 646.9613394191723 640.9815496571249 0 0 1
111 1 1 0 678.8234955448005 647.3892269713406 647.4900127205626 0 0 0
112 1 1 0 646.9809169106398 643.2126916590137 643.9835102031011 0 0 0
113 1 1 0 646.7862926750053 644.5662442005147 643.5538310156103 0 0 0
3500 1 1 0 646.8345179691235 671.1254164739296 642.5065218183464 0 0 1
115 1 1 0 666.3892711532405 676.1752489197833 642.7651578460523 0 0 0
116 1 1 0 677.2245274489726 681.5083653341708 681.358033274332 0 0 0
117 1 1 0 676.4378761880628 658.1638952342838 680.2892067458872 0 0 0
4014 1 1 0 641.1562444139237 641.2316073962028 652.259837335236 0 1 0
119 1 1 0 678.1771110763052 665.1495275210709 651.6389243454399 0 0 0
120 1 1 0 677.3107732636947 665.0235421348908 650.5152181205573 0 0 0
121 1 1 0 679.2480276872078 664.2211487663452 651.7275157088283 0 0 0
122 1 1 0 679.06139097497 662.9704264083226 651.1120509088377 0 0 0
1592 1 1 0 641.6099655083751 641.0937981639847 645.5820408490257 0 0 0
124 1 1 0 679.8666577948715 661.8750949961099 651.5086726803702 0 0 0
4916 1 1 0 677.0648970617608 681.53644827787 642.9291398489348 0 0 0
64 1 1 0 681.8842572722842 668.2295022701792 656.4227301647793 0 0 0
127 1 1 0 671.7423547845111 642.4272957648769 664.5671055164684 0 0 0
1683 1 1 0 681.3938357656102 641.6484423003037 645.3389900268717 0 0 0
129 1 1 0 665.936013676284 646.3528471284397 681.1181779016355 0 0 0
130 1 1 0 645.4774495177916 644.7223317868892 643.0416714618899 0 0 0
2947 1 1 0 646.955471176421 675.2924914440399 641.7735930881696 0 0 1
132 1 1 0 674.1364545342187 643.5443527909874 660.775674313125 0 0 0
133 1 1 0 673.8348540192637 644.0465789622265 647.741641762481 0 0 0
134 1 1 0 680.744694741703 655.109927723264 648.3988284276077 0 0 0
135 1 1 0 677.1363970333439 663.7348815125583 649.9204102740013 0 0 0
136 1 1 0 676.1839822988096 663.3555597719719 648.9383429361008 0 0 0
137 1 1 0 677.9335870742415 662.7013287900295 650.390528622598 0 0 0
138 1 1 0 677.5959416714046 661.3690034618315 650.2341201002657 0 0 0
139 1 1 0 679.3734491490289 660.5977785960083 651.5556465138682 0 0 0
140 1 1 0 678.0912393646481 660.3578065964498 651.0369441893562 0 0 0
141 1 1 0 680.1654022823278 659.5395004373264 652.0172683750114 0 0 0
142 1 1 0 679.6073040114936 658.2537447358849 652.1322661832352 0 0 0
3543 1 1 0 674.8632232140991 681.39936930452 644.4244334577263 0 0 0
144 1 1 0 680.4957203200867 657.1695440166861 652.4360136851935 0 0 0
88 1 1 0 640.8010053205081 675.9896903051715 673.4621896947381 0 0 0
146 1 1 0 667.5470325849852 657.4184211615244 641.9299074687935 0 0 0
147 1 1 0 646.2971792835117 643.1505201745275 672.40002060909 0 0 0
148 1 1 0 648.3955138684877 642.334735622938 671.4369981727892 0 0 0
149 1 1 0 674.4563329911417 656.5827640601844 646.1106171298755 0 0 0
150 1 1 0 676.0821727792755 661.9912906168104 648.5915617435828 0 0 0
151 1 1 0 674.753109514677 661.7239763345136 648.038268178032 0 0 0
152 1 1 0 676.7011838099438 661.0138696816399 649.2650845953916 0 0 0
153 1 1 0 676.1387590218624 659.7618800155028 649.2598005821264 0 0 0
154 1 1 0 677.5138543849116 659.1066907990044 651.1312485255355 0 0 0
155 1 1 0 676.4969123962375 658.8634926968715 650.217612804257 0 0 0
156 1 1 0 678.234862629912 658.0967929150677 651.7728768771957 0 0 0
157 1 1 0 677.7157464007419 656.8158492776774 651.7449622162993 0 0 0
158 1 1 0 679.9341286268655 655.9360770612265 652.3132555906454 0 0 0
159 1 1 0 678.4942443551754 655.757648106534 652.0568432989854 0 0 0
160 1 1 0 680.7659883592711 654.8783358729429 652.0434174445469 0 0 0
161 1 1 0 680.2213475089003 653.5777571002518 651.612402871776 0 0 0
162 1 1 0 641.2615276253163 660.761377913084 646.5746165582394 0 0 0
163 1 1 0 681.0692204725683 652.4288252017154 652.0347278171736 0 0 0
164 1 1 0 672.0208685660318 642.4031503459305 660.3062767901281 0 0 0
165 1 1 0 653.9477309270462 643.2044993394444 676.7251963648755 0 0 0
166 1 1 0 674.4867864568344 660.4156420925658 647.7736864898877 0 0 0
167 1 1 0 673.4223162013417 660.0456567726209 647.0114694845336 0 0 0
168 1 1 0 675.2512031057024 659.3708363156387 648.2680299352093 0 0 0
169 1 1 0 676.1426647617521 657.5150791970699 650.0621258475368 0 0 0
170 1 1 0 676.0073422575409 657.0231616332582 648.6893134231009 0 0 0
171 1 1 0 676.5991784278355 656.5156422079057 650.9713517562342 0 0 0
172 1 1 0 676.4202134275083 655.2048052678773 650.3573601861589 0 0 0
173 1 1 0 678.0019200256953 654.4904548132938 651.9573838706716 0 0 0
174 1 1 0 676.6844679590458 653.821528088974 651.1843943986461 0 0 0
175 1 1 0 680.0225193281043 653.4800213144317 650.1003881813824 0 0 0
176 1 1 0 678.9911168658011 652.7445090152413 649.3775262993607 0 0 0
177 1 1 0 680.1282705298114 650.5392309944162 648.9749084307442 0 0 0
178 1 1 0 679.0000616078116 651.3963427603506 649.0858238222519 0 0 0
123 1 1 0 681.159501104959 662.1581096471829 652.0080543021356 0 0 0
180 1 1 0 675.7043173428028 655.878471001131 680.4439621474113 0 0 0
181 1 1 0 680.9517871750849 653.8719174361901 649.1531921804294 0 0 0
182 1 1 0 643.5912636777217 676.1035753877887 670.8166029103089 0 0 0
183 1 1 0 672.1683847901367 680.0893613527727 675.596105948607 0 0 0
184 1 1 0 673.5229264670079 679.6262284857662 677.4875861796041 0 0 0
185 1 1 0 641.5674621236041 660.853083952237 665.1399095726217 0 0 0
4027 1 1 0 642.8563414666039 641.1920736426981 653.9664334519571 0 1 0
187 1 1 0 641.4370984564287 661.0162274892044 657.5670316086324 0 0 0
188 1 1 0 666.8212177789504 670.3665701943986 645.5785770887611 0 0 0
189 1 1 0 667.3108350689175 669.9024817875081 644.2617197988417 0 0 0
190 1 1 0 667.9333529836441 668.643323158182 643.9327032208453 0 0 0
191 1 1 0 667.6327573150282 668.161373351945 645.8907112903435 0 0 0
192 1 1 0 667.2551785814842 667.4519127319408 644.6873270862599 0 0 0
193 1 1 0 667.8465113708143 666.1272245357981 644.4867099104894 0 0 0
194 1 1 0 668.6713733591721 665.6561516842902 645.5980342772224 0 0 0
195 1 1 0 669.1673708110491 664.3830274104714 645.4426641601553 0 0 0
196 1 1 0 670.4166302702328 663.9836524626115 646.0545549136862 0 0 0
197 1 1 0 670.0494065351995 668.0289527083229 645.0233708236606 0 0 0
198 1 1 0 669.3389885448518 668.1452473262942 643.7408189764254 0 0 0
199 1 1 0 671.1760000268764 667.186527738095 645.0938274512237 0 0 0
200 1 1 0 671.672775919602 666.6902427416288 643.8474762261168 0 0 0
201 1 1 0 669.492406424821 666.8899185469323 642.9395975207516 0 0 0
202 1 1 0 668.4476513841872 665.9117071810608 643.1783500320519 0 0 0
203 1 1 0 670.7673375235612 666.3221138547859 642.7625081748092 0 0 0
204 1 1 0 670.8192738574264 665.1355236166303 641.9915786581142 0 0 0
205 1 1 0 668.8532781300397 664.5285460885174 643.0195293913914 0 0 0
206 1 1 0 668.9029746567061 663.8040599497625 644.2250096368732 0 0 0
207 1 1 0 669.8225606288676 664.1114523500733 641.9953681657012 0 0 0
208 1 1 0 669.6659203610263 662.7050454840316 641.71596032753 0 0 0
209 1 1 0 669.4061951956767 662.5125019738688 644.1036507217925 0 0 0
210 1 1 0 669.2753457936678 661.9080186575558 642.8712036927008 0 0 0
211 1 1 0 670.8304973742378 662.667171491272 646.0006198422715 0 0 0
212 1 1 0 672.0594184703803 662.2417526064447 646.627404980251 0 0 0
213 1 1 0 672.3378539366205 660.8327008669866 646.566691469604 0 0 0
214 1 1 0 670.1962499584088 661.8320562443721 645.1158556471149 0 0 0
215 1 1 0 668.9425058813689 660.5539410254191 643.0279224252628 0 0 0
216 1 1 0 670.3646365653298 660.4146858261804 645.0149240935831 0 0 0
217 1 1 0 671.5308670811606 659.9801174910758 645.6267509896268 0 0 0
218 1 1 0 669.3885305059655 659.7890923796356 644.2193369370391 0 0 0
219 1 1 0 668.1563399413409 659.7261467872581 642.1741637486061 0 0 0
220 1 1 0 644.2445834785518 657.9017468394661 657.9826311163315 0 0 0
3509 1 1 0 674.3448266268712 649.8098694952508 681.9647774467257 0 0 0
222 1 1 0 646.9596387580764 680.5554738915201 664.1277394357563 0 0 0
223 1 1 0 643.2453836205483 674.7778610059281 670.360815898646 0 0 0
224 1 1 0 642.5834890079216 673.9471193681536 671.2918655697556 0 0 0
1597 1 1 0 681.7864924092236 641.6807391998788 646.6248310136633 0 0 0
226 1 1 0 641.3091891662351 660.3903051924764 658.8012220533826 0 0 0
90 1 1 0 640.657777865059 678.4443823328112 669.9738141103419 0 0 0
228 1 1 0 667.045547662028 678.4537386125704 641.832939804459 0 0 0
3421 1 1 0 652.7248889126632 676.5906204167763 643.1804716130412 0 0 1
3514 1 1 0 643.2162156676973 668.0397426474582 642.2044982869968 0 0 1
1655 1 1 0 663.2076390973922 653.7775436875239 641.0948968905842 0 0 0
232 1 1 0 643.5704348484802 675.0853015090763 667.8768935001755 0 0 0
233 1 1 0 656.3072943177915 675.8002094307177 646.5208423022831 0 0 0
234 1 1 0 655.040248187822 670.0799835197656 647.2034705172807 0 0 0
235 1 1 0 655.3415009456919 671.7993020870958 647.174290074928 0 0 0
236 1 1 0 659.4520577468969 672.4460632224823 647.0561401109406 0 0 0
237 1 1 0 646.3684576084645 669.393275103864 645.6102030490148 0 0 0
238 1 1 0 646.6203184817133 670.674525454977 645.1001977955289 0 0 0
239 1 1 0 647.3532446062227 668.4013345043626 646.347506994546 0 0 0
240 1 1 0 648.7379356754568 669.0495379227608 645.8547913256413 0 0 0
241 1 1 0 651.5316505061027 668.360252255264 645.924734127448 0 0 0
242 1 1 0 649.6101203201225 669.2138929914823 647.1615396376645 0 0 0
243 1 1 0 651.7651212486825 667.9008358812875 647.2636414112519 0 0 0
244 1 1 0 652.8655549405124 668.5791597649492 647.8613615826719 0 0 0
245 1 1 0 654.1392503859556 668.9636734839786 647.3173610337724 0 0 0
246 1 1 0 656.9831172112267 672.1479525981248 647.1803526233518 0 0 0
247 1 1 0 658.0827084619095 672.9698491836242 647.0843150335788 0 0 0
248 1 1 0 660.6796938680069 672.889842065179 646.5027369269105 0 0 0
249 1 1 0 661.6834882102214 671.8945085879467 646.8594373124465 0 0 0
250 1 1 0 647.8732628715187 671.2280010386755 644.7177706598665 0 0 0
251 1 1 0 647.6336587513928 672.0223501481536 643.496009184999 0 0 0
252 1 1 0 648.933415690339 670.3106674422961 645.0629537179626 0 0 0
253 1 1 0 650.2141136172991 670.2246619671835 644.5401566248441 0 0 0
254 1 1 0 650.8312666916634 669.8446650203366 647.155184744836 0 0 0
255 1 1 0 651.3030212241216 670.0089157602216 645.6211470168704 0 0 0
256 1 1 0 652.0455255181861 669.8275507834527 648.0323157618435 0 0 0
257 1 1 0 652.8903435078337 670.9953037009993 647.9032207342082 0 0 0
258 1 1 0 655.6933211352134 670.458165520518 648.5932257784514 0 0 0
259 1 1 0 654.1079802346102 670.9980669727464 648.6944262361869 0 0 0
260 1 1 0 656.8830191548905 671.240725822152 648.4193204748332 0 0 0
261 1 1 0 657.5864350710626 671.7596224556871 649.5020807354438 0 0 0
262 1 1 0 659.7030878344627 671.4917321822837 648.1324812533198 0 0 0
263 1 1 0 659.0759377418169 671.7080238127945 649.4533589605524 0 0 0
264 1 1 0 661.123138595709 671.215192834045 648.057220418019 0 0 0
265 1 1 0 661.8320398418201 671.5468164037243 649.2901198246783 0 0 0
266 1 1 0 641.5607522715044 659.3753656513694 654.1585317721408 0 0 0
267 1 1 0 642.2330178246746 665.6117290437622 642.7644073327775 0 0 0
268 1 1 0 650.4888858042295 670.7098428601927 643.2987838257396 0 0 0
269 1 1 0 651.257394037569 671.9754258220426 643.3591208432508 0 0 0
270 1 1 0 652.2613128950092 671.1427518079571 645.5339500917157 0 0 0
271 1 1 0 652.1890030858625 672.0495434911799 644.4579962173107 0 0 0
272 1 1 0 653.0624719525376 671.5029950379434 646.598161872627 0 0 0
273 1 1 0 654.1866429614406 672.2680699322354 646.3448028029941 0 0 0
274 1 1 0 655.6337575988915 673.3016289375375 649.307434171107 0 0 0
275 1 1 0 654.9780774387657 672.3383347035465 648.6477558958071 0 0 0
276 1 1 0 656.9292104706757 672.929439879011 649.9695147475014 0 0 0
277 1 1 0 657.8008641034945 674.1273770029646 649.9216882519524 0 0 0
278 1 1 0 659.7916884404675 672.7049667214792 650.1975335638928 0 0 0
279 1 1 0 659.2320870084203 674.0450399763224 650.0231137823466 0 0 0
280 1 1 0 661.239723856582 672.5117934432445 650.1658280721628 0 0 0
281 1 1 0 662.0008751675148 673.7549802526905 650.0248305200579 0 0 0
282 1 1 0 644.3876286296509 659.9584929410436 650.3094513687571 0 0 0
283 1 1 0 666.9514236118297 642.3130147653418 657.7299892204734 0 0 0
284 1 1 0 641.9997091084211 657.2869906560594 657.1142257760274 0 0 0
2321 1 1 0 648.1642260967982 673.0460942081959 642.720156929988 0 0 1
286 1 1 0 652.7743561861822 673.2858708215069 644.688110699108 0 0 0
287 1 1 0 672.0486456286864 643.3714999226163 657.6628000559554 0 0 0
288 1 1 0 653.8379282251746 673.3908115871108 645.6369603702781 0 0 0
289 1 1 0 654.2861190812771 674.6185539835523 646.1711133438577 0 0 0
290 1 1 0 655.8256332732241 674.5539458450787 648.4866954970913 0 0 0
291 1 1 0 655.3013864555836 674.9508969315714 647.1425083902662 0 0 0
292 1 1 0 657.2794661391467 674.7510248548074 648.7425663503315 0 0 0
293 1 1 0 658.0832189397723 674.5350596986847 647.4662874882983 0 0 0
294 1 1 0 660.0080521359921 674.7521172950745 649.0339672418023 0 0 0
295 1 1 0 659.4570701127423 675.0014650522173 647.8236602201124 0 0 0
296 1 1 0 661.4132520679566 674.5391249236447 649.015624961986 0 0 0
297 1 1 0 662.1366607585913 674.6608822662572 647.8269516578176 0 0 0
757 1 1 0 672.4841009811892 682.1960007411029 674.545288097739 0 0 0
299 1 1 0 666.823567691162 646.9580873966797 642.3237504914856 0 0 0
4002 1 1 0 677.1604880199213 641.0921068091515 647.332799865254 0 1 0
301 1 1 0 667.1756597046432 645.802912242767 680.4803586828698 0 0 0
302 1 1 0 672.9003912644264 642.0773927311972 663.8538588905375 0 0 0
303 1 1 0 669.5829895957262 644.0712194590957 664.342990480961 0 0 0
3491 1 1 0 658.0241057994451 648.3441643653554 641.2850208298962 0 0 1
305 1 1 0 643.1509734949163 641.746695786446 643.3248412945217 0 0 0
306 1 1 0 668.3897885240384 642.1576909195317 658.2307155090559 0 0 0
307 1 1 0 677.2647449263978 677.7765848038957 679.8922338209478 0 0 0
308 1 1 0 657.5944673196285 675.3857846075252 646.3649729143065 0 0 0
118 1 1 0 640.8742450395079 642.3751100521143 673.8881509537904 0 0 0
310 1 1 0 660.2320104702482 675.2015900916841 646.662610539139 0 0 0
311 1 1 0 680.6326192440345 642.7493496556535 670.452133006642 0 0 0
312 1 1 0 661.3517873459463 674.2898678475465 646.5171227287126 0 0 0
313 1 1 0 662.1385269083125 674.545462239277 645.3334292777071 0 0 0
3380 1 1 0 651.6945986834763 676.4034572597342 642.1506986987192 0 0 1
315 1 1 0 670.8830738663065 646.8319247384316 680.8774451756908 0 0 0
1452 1 1 0 681.4210711704548 642.2597732764256 647.9387833587033 0 0 0
317 1 1 0 654.9963511207602 642.3293824575856 675.1466399300949 0 0 0
318 1 1 0 668.0932274665876 644.0232716418257 666.434635822737 0 0 0
2880 1 1 0 648.5911842650721 669.3585104507514 642.2056341492099 0 0 1
320 1 1 0 642.3076975530635 674.4900894898984 672.5265084030387 0 0 0
1479 1 1 0 673.1354286242449 641.3241615534606 642.8808431471524 0 0 0
322 1 1 0 641.7075933034357 673.7327849969839 673.559407497888 0 0 0
693 1 1 0 681.9000505909412 667.0580448135681 660.4490110905471 0 0 0
324 1 1 0 675.7628966582872 643.4049210575187 649.077643553447 0 0 0
325 1 1 0 652.9321099366034 681.2446901149432 642.4653778149191 0 0 0
326 1 1 0 660.3671104661275 677.7262570809033 644.4711156966907 0 0 0
327 1 1 0 661.9621929583822 675.7820934803217 644.7377625034878 0 0 0
328 1 1 0 663.007330151783 676.5737640101142 644.2541273745654 0 0 0
329 1 1 0 669.5381367202278 642.5575089640417 660.2428169067274 0 0 0
330 1 1 0 674.5332726354318 680.375843253679 678.024941037472 0 0 0
331 1 1 0 675.5265475748217 644.8025156771516 669.7243951217183 0 0 0
332 1 1 0 642.2788424971974 658.1394543124121 656.0256266168049 0 0 0
333 1 1 0 647.4338141667811 681.8861619001871 664.3408330984913 0 0 0
334 1 1 0 666.5172910451914 643.5259582915053 642.1959791405566 0 0 0
335 1 1 0 654.7194797602592 680.2630600604228 643.8927611937854 0 0 0
336 1 1 0 645.5629425085904 664.0003796448982 643.6677701020623 0 0 0
337 1 1 0 657.4671344915214 679.9479359365795 644.6282697663515 0 0 0
338 1 1 0 643.6505520138014 665.3713389443997 644.5536873247565 0 0 0
339 1 1 0 658.821248763842 679.5728234261426 644.6059786499213 0 0 0
340 1 1 0 643.5419340879 667.5396262245567 643.5585551416457 0 0 0
341 1 1 0 661.5075850931921 678.5928615439547 644.2411524655852 0 0 0
342 1 1 0 677.8522064001577 653.5008596247017 649.0184061645613 0 0 0
343 1 1 0 662.8018365778319 677.9573993207894 644.1476918915323 0 0 0
344 1 1 0 663.9276929060375 678.7496038874416 643.8174578111816 0 0 0
345 1 1 0 645.9716275918007 658.8028816240219 656.4538396678943 0 0 0
346 1 1 0 677.5859972329592 649.2973390068663 648.799188382641 0 0 0
347 1 1 0 644.6309346948038 658.3782337337183 656.6903722149304 0 0 0
3521 1 1 0 661.4276151176106 648.230538566579 682.1536832350309 0 0 0
349 1 1 0 657.8779818971517 647.240392954024 642.1859726765096 0 0 0
350 1 1 0 642.3964814076563 657.4425316416464 659.4337081702583 0 0 0
351 1 1 0 671.8782793823009 642.2965780522542 661.7154611147441 0 0 0
3318 1 1 0 641.5097079293914 643.521910291708 641.1098067057795 0 0 1
353 1 1 0 642.967698027622 657.2059343891162 658.1371440352503 0 0 0
354 1 1 0 646.2362630037775 658.8692691401385 655.012553126617 0 0 0
4923 1 1 0 677.7577551329504 641.7945730816574 648.4003910957747 0 1 0
356 1 1 0 672.1878161366451 647.3631051418565 680.4856698383 0 0 0
357 1 1 0 662.5742611567151 651.5296322694687 641.7892073440868 0 0 0
358 1 1 0 644.9583823589782 665.238231352547 644.0489375403647 0 0 0
584 1 1 0 681.3614915305066 647.1604730440516 648.3281246096592 0 0 0
360 1 1 0 646.7481153707563 659.0170872261864 657.59049142678 0 0 0
1190 1 1 0 649.1130867698008 641.2465114262054 674.2923114857153 0 0 0
362 1 1 0 671.3678586404734 644.207777813672 654.117861003448 0 0 0
363 1 1 0 644.9343086063523 658.5221180856798 659.0531481668148 0 0 0
364 1 1 0 656.9567089912098 642.3468071215443 664.8656134485052 0 0 0
365 1 1 0 645.4311967800475 668.8315274253082 644.7039235000998 0 0 0
366 1 1 0 678.9558304610509 679.2772635788191 679.5201133025848 0 0 0
367 1 1 0 674.7576972754263 677.6595283029304 677.2844904939659 0 0 0
368 1 1 0 644.8363409448658 667.5977204815231 644.3186652498679 0 0 0
369 1 1 0 659.2337288919356 643.4547412872794 664.6803855995988 0 0 0
370 1 1 0 662.5363385176864 644.5168521122158 661.1110711173421 0 0 0
371 1 1 0 645.5309882358973 680.4634536824329 663.7024304214873 0 0 0
372 1 1 0 661.3031069026521 680.050264992573 644.3553481299865 0 0 0
373 1 1 0 679.4064064605669 646.047127702078 647.5536233806083 0 0 0
374 1 1 0 669.3594791161576 644.160401346356 665.8779060584894 0 0 0
375 1 1 0 663.0781371787411 671.8513555903919 646.7157039767262 0 0 0
376 1 1 0 663.1957084232027 671.4911809558117 649.1805323930989 0 0 0
377 1 1 0 663.5132648262332 673.7469776198326 650.0794726849783 0 0 0
378 1 1 0 663.4656570330269 674.8316491357316 647.8632601928673 0 0 0
379 1 1 0 663.5583476605423 674.1081076772524 645.3677438218377 0 0 0
380 1 1 0 664.2392235426634 675.9864199694472 643.9484890586052 0 0 0
381 1 1 0 665.0973835384657 678.1807616505452 643.2779873190952 0 0 0
382 1 1 0 663.9859889111275 672.6006884152534 645.8408647867941 0 0 0
383 1 1 0 663.7117093958992 671.1850176877953 647.8639220207746 0 0 0
384 1 1 0 664.0707518089234 672.3977976946812 649.9094729241546 0 0 0
385 1 1 0 664.1116099790402 674.7369971818637 649.1187458988535 0 0 0
386 1 1 0 645.7275460690425 671.3110968936571 643.8111579527053 0 0 0
387 1 1 0 667.9617600731164 664.1214900005493 665.5467288038626 0 0 0
388 1 1 0 658.6053239647058 644.6564850068894 664.390957622191 0 0 0
389 1 1 0 666.3598704523433 671.5932084252969 646.1037619565707 0 0 0
390 1 1 0 666.0082062028108 671.5903977436798 647.4926351406937 0 0 0
391 1 1 0 665.0195480717491 670.5899729953159 647.8930473875071 0 0 0
392 1 1 0 665.9821153765478 670.6935888877143 650.0262552354253 0 0 0
393 1 1 0 665.5448929080554 672.1336739255922 649.7627458475877 0 0 0
394 1 1 0 666.159259428986 672.5695574380812 648.5152441737404 0 0 0
395 1 1 0 665.5373126820713 674.7960935261771 649.0212820244759 0 0 0
396 1 1 0 666.0957764127962 673.8980433830178 648.0440619078583 0 0 0
397 1 1 0 664.209268912578 674.4312903437184 646.7334094684551 0 0 0
398 1 1 0 665.4311739318771 673.9134922874122 646.8045040112407 0 0 0
399 1 1 0 665.6664600549311 672.9060620934263 645.4771757500856 0 0 0
400 1 1 0 664.4430180669278 674.6583996308912 644.2550416961096 0 0 0
462 1 1 0 646.313942245442 658.4386780660792 641.248101107743 0 0 0
1462 1 1 0 663.1056548932095 641.367574040354 663.1103209841407 0 0 0
403 1 1 0 665.2326272822348 676.8215852887148 643.2765615207455 0 0 0
1381 1 1 0 642.6351477358922 641.0934684201001 644.4788219655646 0 0 0
405 1 1 0 641.523165055577 660.4967679093352 647.926332258998 0 0 0
406 1 1 0 672.9741164160632 647.5611121839382 681.7102125140755 0 0 0
407 1 1 0 645.2534089188272 680.6140695032296 665.1288341124036 0 0 0
408 1 1 0 672.854189516748 678.2140761099402 675.7406854214049 0 0 0
409 1 1 0 660.602088351616 643.493842022293 665.0539717168042 0 0 0
410 1 1 0 657.3843568194098 644.6563076889063 663.8680169237499 0 0 0
3138 1 1 0 643.7149589143156 677.270823134287 642.1126786548191 0 0 1
412 1 1 0 673.38294451616 643.5184580669179 652.2960887355251 0 0 0
413 1 1 0 660.7701761211281 643.740728551285 666.4219465177741 0 0 0
414 1 1 0 670.8323984738311 642.4277488150647 659.5127595947745 0 0 0
547 1 1 0 658.5202768833269 682.185767539603 655.9658621823897 0 0 0
416 1 1 0 678.7516190430885 648.6927844723061 648.1686730807658 0 0 0
417 1 1 0 647.9918387628412 645.152141127432 643.0575786355054 0 0 0
418 1 1 0 648.8446967291433 663.7589463149912 642.5542834971801 0 0 0
419 1 1 0 676.3627143360358 642.7893106809468 671.5254490218309 0 0 0
3194 1 1 0 642.6240615189023 663.3510623128925 641.1304474840945 0 0 1
421 1 1 0 663.755533917242 681.8078920689917 676.1310215965775 0 0 0
422 1 1 0 661.1502259485385 646.5578878226436 678.385359194108 0 0 0
1498 1 1 0 676.730710801875 682.4002035277342 678.9311637409979 0 0 0
424 1 1 0 672.3958150657397 680.28679460709 677.1200800045822 0 0 0
425 1 1 0 665.6713024483904 646.1681579314126 642.661505006402 0 0 0
426 1 1 0 674.2213672015448 662.059051644062 680.9709614495822 0 0 0
6821 1 1 0 681.9360097676102 672.426564602453 661.9902936974097 0 0 0