LAMMPS data file via write_data, version 2 Aug 2023, timestep = 50000, units = metal

4560 atoms
1 atom types

636.0701156689765 728.1098843310278 xlo xhi
635.9073264212612 728.9816735787387 ylo yhi
635.6598411834482 729.2291588165517 zlo zhi

Masses

1 12.0107

Atoms # full

1 1 1 0 659.7008965676354 651.6245759863511 648.5145548797497 0 0 0
2 1 1 0 669.2466665582416 667.2836146027279 679.5843758547068 0 0 0
3 1 1 0 665.0807117804459 671.4967988455647 680.5815272870182 0 0 0
4 1 1 0 668.837905744278 670.1815453558047 677.8644566478475 0 0 0
5 1 1 0 656.6911724915872 654.4572292172454 652.8782091726824 0 0 0
6 1 1 0 667.0560342211352 671.8404104015118 678.6749203361152 0 0 0
7 1 1 0 670.1522505022041 667.2175517051932 678.4497400481289 0 0 0
8 1 1 0 671.3163574979764 668.0058450145622 678.3111959423466 0 0 0
2798 1 1 0 680.3265661935626 658.5356440302184 640.3318809065582 0 0 0
10 1 1 0 662.159136438457 669.8994045366635 674.3297656732552 0 0 0
11 1 1 0 668.2822417162057 672.4532463278739 678.2056628109725 0 0 0
12 1 1 0 669.535538272905 671.5622170424349 677.8736613096962 0 0 0
13 1 1 0 672.1917550682186 669.2890804608231 676.2562752350276 0 0 0
14 1 1 0 663.0702452004913 675.8697553764983 679.339213138529 0 0 0
15 1 1 0 669.5880832077626 666.3353172298197 677.4210088025899 0 0 0
16 1 1 0 662.9909174155454 675.1687022601657 680.6474665459561 0 0 0
17 1 1 0 670.6864488561524 670.0789103178147 679.5696565637886 0 0 0
18 1 1 0 671.5650959816605 668.9924302125437 679.3099134645925 0 0 0
19 1 1 0 663.8275242606934 675.780527045802 676.9925975739591 0 0 0
20 1 1 0 671.9557241132359 671.8018753210238 678.2698072582685 0 0 0
21 1 1 0 672.0003631624566 668.235802678698 677.105146972734 0 0 0
22 1 1 0 669.0910535824177 669.2898939260156 676.799543830687 0 0 0
23 1 1 0 663.8013173389968 673.1271505134379 679.5533937832233 0 0 0
24 1 1 0 664.2232566839086 671.7820401314625 679.4905286733609 0 0 0
25 1 1 0 663.3970710344047 671.946100754197 674.0413488978063 0 0 0
26 1 1 0 663.8386778318657 675.2400627565175 678.330660019241 0 0 0
27 1 1 0 669.667140943003 669.6880316490957 675.5544048961667 0 0 0
28 1 1 0 669.7052302882933 671.885676824916 676.3364686135714 0 0 0
29 1 1 0 663.659201858236 673.8381583038207 678.372499236122 0 0 0
30 1 1 0 668.5164192800196 672.5867668701407 675.8996601797605 0 0 0
31 1 1 0 662.9827414097138 650.4129067664203 645.1325060267242 0 0 0
32 1 1 0 668.6370167036207 652.9588129063969 644.1187011305966 0 0 0
33 1 1 0 675.8206038963833 654.2179422954833 643.7391394596582 0 0 0
34 1 1 0 661.9895522360757 651.9315930913518 647.3762876582587 0 0 0
35 1 1 0 667.6051681257826 653.2159145070077 645.03706748199 0 0 0
36 1 1 0 669.1943697517406 665.0781152707578 678.027404814723 0 0 0
37 1 1 0 657.0412617601976 656.32657594432 651.3723256198138 0 0 0
38 1 1 0 665.4462076776873 653.3790238589885 646.8116803561229 0 0 0
1781 1 1 0 637.9648358555734 639.6882105659712 680.8827706334995 0 1 0
40 1 1 0 653.5743242234726 652.1958258721183 654.3095382099823 0 0 0
41 1 1 0 662.4244799752709 656.0117432469563 648.3831266294986 0 0 0
42 1 1 0 651.3796177831142 652.853825695863 653.7144888310062 0 0 0
43 1 1 0 654.4236867288408 649.3318568353977 650.9751710830259 0 0 0
44 1 1 0 662.1687792667877 655.7032292123143 642.581424871381 0 0 0
45 1 1 0 665.9075695122559 674.6218916438286 676.706598219909 0 0 0
325 1 1 0 672.787877302789 677.8279591787759 646.1370773231337 0 0 0
47 1 1 0 660.6877068414615 671.740604567151 678.7261797098231 0 0 0
48 1 1 0 646.4987973286591 648.0123559666212 654.3292277937408 0 0 0
2884 1 1 0 680.1791767247026 656.2411698026922 642.2543588728213 0 0 0
50 1 1 0 659.183551989528 652.7330649642805 646.1507437327481 0 0 0
51 1 1 0 667.0024509118801 656.4502438091192 641.5742981650511 0 0 0
52 1 1 0 664.7875021633121 675.2412918053485 676.1168548920347 0 0 0
53 1 1 0 653.8323256995064 653.6112678684468 655.1109676826192 0 0 0
54 1 1 0 661.7777646168423 652.6066287243877 649.5461560710437 0 0 0
55 1 1 0 654.9222460531777 656.0892947868375 652.5635538111694 0 0 0
56 1 1 0 668.1496569335754 655.5443246541258 644.9189218621357 0 0 0
57 1 1 0 666.4758930378673 673.4281336494481 677.1115643034067 0 0 0
58 1 1 0 652.5012961804051 654.2707295154643 655.2671835796363 0 0 0
59 1 1 0 669.5510704825308 655.1186853500278 644.5756034080963 0 0 0
1377 1 1 0 667.6162632328784 636.3647881794717 660.2660439469286 0 1 0
61 1 1 0 658.59172241945 651.8984135387642 651.0878631280286 0 0 0
62 1 1 0 663.3868755660093 670.5689967825546 674.2719269335582 0 0 0
63 1 1 0 660.7932434363053 654.7324887615129 650.2515387306308 0 0 0
64 1 1 0 653.2969405739424 655.2940253453412 649.1769449272676 0 0 0
65 1 1 0 659.8260399785123 653.9990908173356 650.9679114258953 0 0 0
66 1 1 0 666.4945803767218 669.0951431310128 673.593572938139 0 0 0
67 1 1 0 660.833417992082 675.4350707028233 679.7373808327184 0 0 0
68 1 1 0 646.712378610581 649.3644224892709 653.9452244040282 0 0 0
1400 1 1 0 681.0861085068708 679.932554186415 647.8052822306478 0 0 0
70 1 1 0 648.056257454199 649.773696877014 653.8436759513564 0 0 0
71 1 1 0 666.2423755664131 651.6038753901207 643.9203454503877 0 0 0
72 1 1 0 649.9909701593723 652.8992210076609 653.037346554306 0 0 0
73 1 1 0 655.7575633163696 653.6762033373541 653.6278257977199 0 0 0
74 1 1 0 660.4591466049553 652.1226620114927 649.6067002864219 0 0 0
75 1 1 0 665.847806821497 654.6251862038259 646.0881688263024 0 0 0
76 1 1 0 652.2581970432302 653.1080424054195 648.9649176363496 0 0 0
81 1 1 0 676.3418546311168 679.399431063766 643.2055621332107 0 0 0
78 1 1 0 661.7158137747078 676.1779637099389 678.848851875666 0 0 0
79 1 1 0 661.0857330732696 671.3291466253985 676.2177189910523 0 0 0
80 1 1 0 669.7718603446791 653.7580324584861 644.1829491938588 0 0 0
1464 1 1 0 654.0222526974286 681.7775818761959 635.8516663821584 0 0 0
82 1 1 0 652.4838483592079 652.210575013489 653.3106639468258 0 0 0
83 1 1 0 660.4833892539186 656.0639789340252 649.8371268608186 0 0 0
84 1 1 0 655.3808597970301 652.2867540018149 646.1701127700217 0 0 0
85 1 1 0 667.9813991512472 666.6320346176951 679.350054931347 0 0 0
86 1 1 0 662.5043139012697 676.0832491831368 676.5056271530779 0 0 0
87 1 1 0 663.3581306402014 649.7089729164419 647.3859733118999 0 0 0
88 1 1 0 652.4136369583206 651.0322081879686 652.5816731742035 0 0 0
89 1 1 0 661.5787047783917 675.369848007404 681.0538090366689 0 0 0
90 1 1 0 667.1902507257795 670.7623898499762 679.5970354489344 0 0 0
91 1 1 0 652.8197626889367 656.2118057312991 651.385687491097 0 0 0
92 1 1 0 660.3771491196819 674.0046010339278 679.66061937013 0 0 0
93 1 1 0 666.1933484270088 670.6141514705606 680.6031569022658 0 0 0
94 1 1 0 664.3855689984042 650.610049734206 645.0739893941088 0 0 0
95 1 1 0 654.7184259067643 651.438250206482 653.8225805102048 0 0 0
96 1 1 0 663.1303089043134 656.7473762490243 642.8733574382616 0 0 0
97 1 1 0 661.8426641056486 654.0192070892869 649.6267269322736 0 0 0
98 1 1 0 665.8709412906251 657.5706382465618 644.7135076321049 0 0 0
99 1 1 0 649.2460081581049 654.0690045162617 653.7982868833707 0 0 0
100 1 1 0 666.8665736270171 652.1002450274104 642.7594987196935 0 0 0
101 1 1 0 654.3164250884964 652.4878395258709 650.6024496986975 0 0 0
102 1 1 0 660.0362466118444 651.633164621408 647.1339831859087 0 0 0
103 1 1 0 650.4322971408551 652.7435354547302 650.4447140112005 0 0 0
104 1 1 0 654.7364582455542 654.4006346757076 654.2608922693433 0 0 0
105 1 1 0 678.6627342448585 652.4167581111054 666.7194148126573 0 0 0
1135 1 1 0 639.208125339917 646.8625472610728 678.8831491715657 0 1 0
107 1 1 0 670.253583638182 653.4967702013005 641.8518892747541 0 0 0
1962 1 1 0 637.542507769631 638.1549059793111 681.1869325973494 0 1 0
109 1 1 0 658.5072809676843 657.3542918415792 649.1803264825312 0 0 0
110 1 1 0 666.7998525428658 657.415743162151 643.7115729821996 0 0 0
111 1 1 0 661.0975733029657 669.0095371254557 679.1950737622676 0 0 0
112 1 1 0 660.3288913800087 652.7118243990747 644.9492042227321 0 0 0
113 1 1 0 661.5501318340373 652.2597161622887 645.4421804130582 0 0 0
114 1 1 0 656.4949641885719 653.6650570023623 650.1444939479017 0 0 0
115 1 1 0 666.5223036561418 672.7988874897707 674.4244826795486 0 0 0
116 1 1 0 663.1136003961888 667.6701199520444 674.55122711142 0 0 0
117 1 1 0 663.2233353766735 672.9079604159618 676.1229567539805 0 0 0
118 1 1 0 662.6361263082165 651.9428439681558 648.637847407579 0 0 0
119 1 1 0 667.9215854740141 665.3714027251905 678.6450797702995 0 0 0
120 1 1 0 664.3584158275495 674.6151129261276 674.9021344025036 0 0 0
121 1 1 0 650.2133212475661 651.9133677159106 656.1843635884028 0 0 0
122 1 1 0 657.9967474355306 651.028349836103 650.1368349575076 0 0 0
123 1 1 0 646.7035007676941 647.7285150710175 655.7174692795573 0 0 0
124 1 1 0 667.9195113631872 673.2308925798003 677.0462427836807 0 0 0
125 1 1 0 665.1609128290814 670.3371559257795 676.1953437617882 0 0 0
126 1 1 0 661.0410287532687 674.1709313061164 676.0938140929193 0 0 0
127 1 1 0 664.1448216201667 672.6456731192225 675.123397363337 0 0 0
128 1 1 0 662.5930241118735 667.2585084544276 678.3199690438781 0 0 0
129 1 1 0 663.5958353780833 673.8355222878259 680.7762342453932 0 0 0
130 1 1 0 654.4356121224001 650.2351397455102 649.8686013342626 0 0 0
131 1 1 0 670.4623569580249 670.8658066272798 675.6924924020072 0 0 0
132 1 1 0 674.5136211480036 653.9374231373565 643.7258769513867 0 0 0
431 1 1 0 674.1917653607426 677.5663556064861 646.3871991240434 0 0 0
1426 1 1 0 638.6740427178186 647.7960794985662 679.8589279905054 0 1 0
135 1 1 0 678.0371003873627 653.6098442496072 670.5747880598522 0 0 0
136 1 1 0 656.7291021943735 650.5030013770676 650.4313042759375 0 0 0
137 1 1 0 652.8216282775738 655.9841603871541 653.793065594683 0 0 0
138 1 1 0 649.8414692946378 654.6524002152457 655.9770554426033 0 0 0
139 1 1 0 661.4466446508344 667.6907067743688 679.3500176530434 0 0 0
140 1 1 0 666.0719477137815 652.9537527046732 641.9737855195242 0 0 0
141 1 1 0 658.7610797314886 654.6290992880929 651.6097166863963 0 0 0
142 1 1 0 662.6839054083474 652.1162746093935 643.3673138980672 0 0 0
143 1 1 0 654.1968374533288 656.5394533676929 651.4444937311313 0 0 0
144 1 1 0 664.9942757633219 651.0324187708977 646.2986806454061 0 0 0
145 1 1 0 653.6333704256245 651.4051416163938 650.0045479437347 0 0 0
146 1 1 0 654.7466337278726 653.4324372864708 648.3978394630882 0 0 0
1453 1 1 0 637.5472387840493 643.2094859236063 680.3873186479277 0 1 0
148 1 1 0 650.0030507079647 655.3231585150587 653.7144177174769 0 0 0
149 1 1 0 656.6999900013589 651.6704650593488 652.5539040870974 0 0 0
150 1 1 0 656.0594189852947 651.2334969733238 648.1883317641888 0 0 0
151 1 1 0 663.4590297965326 655.3600520356325 646.3561558694205 0 0 0
152 1 1 0 657.4065265887474 653.7721506067022 649.1256695608052 0 0 0
153 1 1 0 673.1976698901109 654.1533722227632 643.7403837782258 0 0 0
154 1 1 0 664.7674695836779 655.4238476530368 641.7288555203024 0 0 0
155 1 1 0 650.0788168539265 653.4392440708843 651.6066421955911 0 0 0
156 1 1 0 649.8132787819193 649.1980244232407 655.9275362356359 0 0 0
157 1 1 0 649.4304712579699 648.099236878338 655.1261685991014 0 0 0
158 1 1 0 651.0791666966825 649.7716490142723 655.5315916177883 0 0 0
159 1 1 0 651.5321467282448 649.4577136262565 654.1597126023439 0 0 0
160 1 1 0 649.1108552322286 648.5954432506259 653.7246412365674 0 0 0
161 1 1 0 654.3379881634045 650.1864522855061 653.2907724699625 0 0 0
162 1 1 0 650.3951120177105 649.3037946002521 653.2439746205482 0 0 0
163 1 1 0 650.1843546981077 650.4710337287802 652.4256213662848 0 0 0
164 1 1 0 676.3605927021422 656.7377754932102 666.8950669927783 0 0 0
165 1 1 0 675.9682654446333 657.0625664865164 665.5576814987637 0 0 0
166 1 1 0 677.5524116521822 657.336166855178 667.3105015968667 0 0 0
167 1 1 0 678.1906982347347 658.0682085745538 666.2628411577922 0 0 0
168 1 1 0 677.0255787250358 656.7142422384642 664.6497762706834 0 0 0
169 1 1 0 677.2769574642527 655.2875707496909 664.5805225769328 0 0 0
170 1 1 0 678.1978519626514 657.5247351809389 664.9232699686232 0 0 0
171 1 1 0 679.4163898892364 656.9872679788277 664.4529444440285 0 0 0
172 1 1 0 654.9182564669967 656.7577277585976 650.2473489553881 0 0 0
173 1 1 0 647.4674809209564 649.9927476498615 656.8526797373249 0 0 0
174 1 1 0 648.763815759104 650.1113943394399 656.2914272791867 0 0 0
175 1 1 0 646.9045006541556 651.2357743307334 657.236891903394 0 0 0
176 1 1 0 647.0234282864008 652.4581667265159 656.5988549573808 0 0 0
177 1 1 0 666.6671507723105 652.1943250338682 645.1195689654515 0 0 0
178 1 1 0 661.0187822206615 670.9637390029009 677.5819301334103 0 0 0
179 1 1 0 661.1241015781223 670.2917753905224 675.2824738425944 0 0 0
180 1 1 0 657.7724835162494 651.8612705960267 646.4827620244563 0 0 0
181 1 1 0 662.9218116076486 674.445375979527 674.6466403364436 0 0 0
182 1 1 0 652.7920452745136 649.8766786881284 653.4505881746628 0 0 0
183 1 1 0 646.729874141495 648.8169212478218 656.6158469145712 0 0 0
184 1 1 0 662.273158643783 651.4662870746341 644.545862497776 0 0 0
185 1 1 0 656.3065506248047 650.5220991449703 651.8109539898734 0 0 0
186 1 1 0 656.6460424123477 652.0477223353643 645.6453680902092 0 0 0
187 1 1 0 658.6058014100876 657.118101269218 646.8084748186133 0 0 0
1586 1 1 0 640.5667769228162 647.4813194692063 681.4152475666001 0 1 0
189 1 1 0 656.267529110953 655.7058727974079 652.3764434975704 0 0 0
190 1 1 0 663.2186498304453 653.8659311164173 647.6603291331123 0 0 0
191 1 1 0 654.4191225248429 656.157759868363 649.064129055132 0 0 0
192 1 1 0 665.9650573349052 672.1848862296363 677.7595422142946 0 0 0
193 1 1 0 670.7614337687036 671.2612482335276 678.7651843265104 0 0 0
194 1 1 0 671.7958555126469 670.635519086955 676.1228416734762 0 0 0
195 1 1 0 672.3983542873456 671.5896011450194 676.9787093279449 0 0 0
196 1 1 0 665.2920590345772 673.4372180281935 674.5888288421847 0 0 0
197 1 1 0 661.3937135841153 673.6287661336721 677.4588315670337 0 0 0
198 1 1 0 662.796762701783 673.320130017693 677.4184928588194 0 0 0
199 1 1 0 668.2501206786393 652.4152388722555 642.876259424424 0 0 0
200 1 1 0 655.189845852298 653.261916702435 649.873292960204 0 0 0
201 1 1 0 658.3931395751823 655.9213057237365 651.1695068564562 0 0 0
1456 1 1 0 638.2714700914571 644.6205137917099 680.5959562185327 0 1 0
203 1 1 0 664.6702740165324 653.0241874124844 642.2503421966443 0 0 0
204 1 1 0 660.6691192608141 673.1499740098876 678.5779886769769 0 0 0
205 1 1 0 655.1730733245791 652.1815978839699 647.5713110365496 0 0 0
206 1 1 0 653.4264302086343 652.1926851028504 655.9384800745869 0 0 0
1488 1 1 0 644.3788872288497 642.4469769375522 680.3759816372013 0 1 0
208 1 1 0 662.3704487378404 653.1277517662476 646.4677560052253 0 0 0
209 1 1 0 655.0986353468609 649.8010340691699 652.1352910517932 0 0 0
210 1 1 0 662.5818298078316 654.647005372824 648.6422258792151 0 0 0
211 1 1 0 664.0712720083867 651.8678977012589 648.3581086193838 0 0 0
212 1 1 0 661.9920724187195 675.1328010565949 675.5626323931685 0 0 0
213 1 1 0 670.7838141254207 653.5783931346373 643.1958649053962 0 0 0
214 1 1 0 665.8289337160672 652.1581225202224 646.2052687227218 0 0 0
215 1 1 0 661.2577962240051 656.6765677447 648.8064225850135 0 0 0
216 1 1 0 655.7719314526202 652.2545642056353 653.4320552478033 0 0 0
217 1 1 0 662.3776536874295 649.9511223412636 646.3587995520377 0 0 0
218 1 1 0 661.0400343902079 655.9569204394854 643.4173857137758 0 0 0
219 1 1 0 664.9547780379887 671.1939789330823 677.3422392520908 0 0 0
220 1 1 0 648.9052985793024 651.428445102169 655.4950635458265 0 0 0
221 1 1 0 648.1235453179208 652.7340198413 655.7643400833892 0 0 0
222 1 1 0 648.6292063285133 651.0180750137797 654.06228549388 0 0 0
223 1 1 0 649.4343419887599 651.4998175147656 653.0631151933542 0 0 0
224 1 1 0 671.3581487244695 655.6177371555133 640.828300632852 0 0 0
225 1 1 0 664.4685448505279 653.1863334249423 647.8319000623147 0 0 0
226 1 1 0 651.0406886799349 653.7021379432815 649.4855680489845 0 0 0
227 1 1 0 653.3190990526936 653.9646930451163 648.6410250533429 0 0 0
228 1 1 0 652.5884807963946 651.4308515740707 656.6061798121716 0 0 0
229 1 1 0 664.3615488186016 650.7260797929473 647.5300526609349 0 0 0
230 1 1 0 668.089764433196 653.9557711793123 641.0526072881421 0 0 0
231 1 1 0 652.3621401152511 655.6196220705634 650.1817180614137 0 0 0
232 1 1 0 664.9631861947976 665.1885191162659 679.3856732757555 0 0 0
233 1 1 0 664.1716393438016 666.3360079952997 676.1109286698509 0 0 0
234 1 1 0 664.5483033642481 667.6288728308199 674.2497341558002 0 0 0
235 1 1 0 665.141385477394 666.5707691738287 675.054225130321 0 0 0
236 1 1 0 679.7767303778992 655.7183811459684 664.9830728980833 0 0 0
2998 1 1 0 680.9545196564816 651.484365757764 671.0982409478534 0 0 0
238 1 1 0 678.6785375900515 654.8133012690573 664.9404217449357 0 0 0
239 1 1 0 678.1245618937083 653.4706585141463 665.7787052392297 0 0 0
240 1 1 0 652.0875970554104 655.5542144809486 654.9512507481968 0 0 0
241 1 1 0 662.3734947536485 673.0940667586248 674.3292584244084 0 0 0
419 1 1 0 676.3487811357525 676.8394729116584 645.71186447519 0 0 0
243 1 1 0 664.4375650563389 671.7694525510855 681.8178802134697 0 0 0
432 1 1 0 678.7771091861939 676.9409307194105 645.4473936617145 0 0 0
245 1 1 0 650.4812935014091 653.2510506413719 655.9508153293052 0 0 0
246 1 1 0 662.6287980453509 654.3671890008945 642.4047168675232 0 0 0
247 1 1 0 651.3248650478292 650.861246388642 651.6878938755239 0 0 0
248 1 1 0 657.776937823431 652.4444911315118 652.0886559688188 0 0 0
249 1 1 0 664.0581956707434 652.0204159871234 643.0612909643096 0 0 0
250 1 1 0 648.9638477048236 646.9084356467046 655.6860244562199 0 0 0
251 1 1 0 647.6345601662603 646.6893682504488 655.9890608607587 0 0 0
252 1 1 0 661.2526000206649 650.787082798138 646.7587268979668 0 0 0
253 1 1 0 651.2608411162918 651.5914096157043 650.4919226103974 0 0 0
254 1 1 0 667.5367673104092 672.0034155556758 675.0208673608948 0 0 0
255 1 1 0 657.4436713587369 651.3126372600483 647.7637395472997 0 0 0
256 1 1 0 664.0340053566683 670.8524997803556 678.3716572734728 0 0 0
257 1 1 0 661.6751327845225 676.6723417754395 677.5079855338626 0 0 0
258 1 1 0 656.3288677566368 656.9771679057926 650.3287385863572 0 0 0
259 1 1 0 662.3655429502427 654.5594747253306 645.9794282096003 0 0 0
260 1 1 0 648.7545854799798 653.859133100397 655.156844781939 0 0 0
261 1 1 0 659.7091525500058 652.6300090227958 650.6802568007344 0 0 0
262 1 1 0 657.8087345924596 653.8468309740804 652.2977538900499 0 0 0
263 1 1 0 668.2052256636732 668.228856527983 681.5816306888727 0 0 0
264 1 1 0 669.4262989266199 669.6376768738002 680.0611586881132 0 0 0
265 1 1 0 664.5537539978225 669.9854079394196 674.9137903208746 0 0 0
266 1 1 0 668.3495198428423 670.0206564878505 679.2280154374749 0 0 0
267 1 1 0 659.1711471073356 656.5541748823872 650.144415876289 0 0 0
268 1 1 0 654.2010605901144 655.5687814704957 653.665373556017 0 0 0
269 1 1 0 661.5890525255089 672.6417999736058 675.7344161698782 0 0 0
270 1 1 0 648.3666698572163 647.4417294350671 652.9295472265591 0 0 0
271 1 1 0 665.2026917808749 668.888760412293 674.1626974328 0 0 0
272 1 1 0 660.611767411743 668.9896763219996 675.6951770792633 0 0 0
273 1 1 0 662.0589404705877 668.4667522003812 674.0608454361095 0 0 0
274 1 1 0 661.2942164037644 668.5603588697336 676.8279521397124 0 0 0
275 1 1 0 668.887475003794 652.9626793369591 641.7316655464854 0 0 0
276 1 1 0 668.9190010805377 655.1399468729603 640.9356508867005 0 0 0
277 1 1 0 658.3936478358144 651.2298434805843 648.7947032462926 0 0 0
278 1 1 0 662.0927689813797 667.4171717202197 676.8912042926056 0 0 0
279 1 1 0 662.9386614083453 667.0292463768136 675.8492482672303 0 0 0
280 1 1 0 661.6437145882936 669.6258974501567 677.9114363572509 0 0 0
281 1 1 0 663.2109076277872 669.6760640564913 678.1553038695338 0 0 0
282 1 1 0 676.8433708508315 652.9624155309656 665.0249446723843 0 0 0
283 1 1 0 676.2390036017125 654.2940879093309 664.9525140281835 0 0 0
284 1 1 0 676.2422926639078 651.8522188609988 665.6658948131907 0 0 0
285 1 1 0 676.3847702260978 651.8048266103092 667.0778452195501 0 0 0
286 1 1 0 661.9814871713206 667.1922089347846 680.6767353692545 0 0 0
287 1 1 0 677.7260537205839 651.734898539603 667.5209081847123 0 0 0
288 1 1 0 671.9274981218199 656.3408444191235 641.9049574261253 0 0 0
1012 1 1 0 636.6773925284531 646.5838137901344 680.1937021612072 0 1 0
290 1 1 0 674.3146533756461 657.5283988918266 641.7571530191728 0 0 0
1945 1 1 0 637.3255753076278 637.1564516874071 680.0195158722172 0 1 0
292 1 1 0 660.6078175969167 657.4346253395678 645.4689799801896 0 0 0
293 1 1 0 655.3717229513394 655.8861611995212 648.0584413883648 0 0 0
294 1 1 0 674.7837590246193 653.5552882060722 666.9045491528258 0 0 0
295 1 1 0 675.4971335799559 654.5438846860799 666.1697365209767 0 0 0
296 1 1 0 675.599845109791 652.7597357104684 667.7849565214012 0 0 0
297 1 1 0 676.2847896291211 653.4962298511056 668.8282123197567 0 0 0
1410 1 1 0 677.7357086270324 677.2264801659604 647.658722560221 0 0 0
299 1 1 0 677.2871688226121 652.8465473789113 669.6022083797484 0 0 0
300 1 1 0 673.044614453039 657.1573849770534 641.7753526539651 0 0 0
237 1 1 0 677.2119248986335 677.2566154598594 643.5022786342686 0 0 0
302 1 1 0 650.4262227428841 654.8156396931637 651.4430624805444 0 0 0
1486 1 1 0 643.3748179498515 643.1612268307662 679.6910294412424 0 1 0
304 1 1 0 663.6941664891143 672.994101048524 681.9662677221088 0 0 0
305 1 1 0 652.0818620415039 656.0975330496724 652.5830572014352 0 0 0
306 1 1 0 676.417809866416 655.2674611237247 667.0946408505705 0 0 0
307 1 1 0 677.8209651073713 654.6844910482506 666.7405232155717 0 0 0
308 1 1 0 676.5367947915514 654.8447147526367 668.5592912519354 0 0 0
309 1 1 0 677.5414965232194 655.5338262311627 669.2135578399301 0 0 0
310 1 1 0 659.5322975506259 656.609513152135 645.8931624127368 0 0 0
311 1 1 0 678.2090281062526 655.0010788213975 670.3183165348432 0 0 0
312 1 1 0 666.1498806772288 655.3257411085548 641.403317572008 0 0 0
313 1 1 0 659.2235831098645 657.6466987334759 647.9752402704316 0 0 0
314 1 1 0 656.9735327187631 654.2066927337513 647.8673521122544 0 0 0
315 1 1 0 671.4777931217803 655.8289540109876 643.1672155056722 0 0 0
316 1 1 0 650.742170097634 655.6113999318246 652.5485408703533 0 0 0
1118 1 1 0 639.1753808186417 647.6087144586372 681.1937275712713 0 1 0
318 1 1 0 678.8488981361297 655.1109919443908 667.5652607677737 0 0 0
1394 1 1 0 679.4663229188844 679.6206202324882 644.8080444613677 0 0 0
320 1 1 0 678.3816812479934 656.4599318842323 668.2514843393309 0 0 0
1483 1 1 0 640.5362579900814 646.4024950516784 679.234356352523 0 1 0
1519 1 1 0 637.6269807901297 645.8406349260113 680.9691175626253 0 1 0
2109 1 1 0 638.790652203331 639.8352009224506 679.6414258566299 0 1 0
1976 1 1 0 640.8814617388539 640.8030992107538 678.720975480376 0 1 0
2557 1 1 0 679.0654120275026 652.9600622902485 671.3145306010712 0 0 0
1622 1 1 0 681.3204667862075 680.3392890109365 642.8411484123899 0 0 0
1755 1 1 0 636.2097188768831 641.3784129763792 679.7176166544867 0 1 0
328 1 1 0 679.9424271743902 654.2177295460904 667.6672631880001 0 0 0
322 1 1 0 675.593450267348 657.8183358969962 641.5980258649959 0 0 0
330 1 1 0 679.7746677572051 652.8398065921076 667.4240664112033 0 0 0
1624 1 1 0 678.6850523700539 680.4323789496951 642.8413858984945 0 0 0
1393 1 1 0 679.9537869382094 682.0832519799704 647.7737267500013 0 0 0
333 1 1 0 665.1325711657506 657.7990767361272 642.0095619969377 0 0 0
334 1 1 0 666.4652238064253 657.508319041447 642.345347992695 0 0 0
335 1 1 0 662.6856501920358 657.4495257986179 644.0668516092785 0 0 0
336 1 1 0 651.4847907908935 653.3718226667505 654.9828645827421 0 0 0
337 1 1 0 650.6099997563257 655.6182501490437 655.0155743893328 0 0 0
338 1 1 0 667.207951556172 654.5570686548672 645.413693465697 0 0 0
339 1 1 0 667.2810156677764 670.5774125759057 675.1953721421703 0 0 0
340 1 1 0 669.0165693471668 669.2823954340939 674.3423339824357 0 0 0
341 1 1 0 666.523876861866 669.8970993315419 676.222259607371 0 0 0
342 1 1 0 666.2265941894282 668.1362345121535 678.1395385671801 0 0 0
343 1 1 0 663.6952960790279 668.3706266945502 678.2291189182208 0 0 0
344 1 1 0 664.8835219412935 667.7540314286605 677.9036768038936 0 0 0
345 1 1 0 655.7581125785164 650.497142355168 649.3844916568548 0 0 0
346 1 1 0 662.8996116244596 666.401638234353 679.728313121353 0 0 0
347 1 1 0 651.296056789546 651.0118493336444 656.2121027934593 0 0 0
348 1 1 0 670.301209920178 654.7226200194035 641.0574337276637 0 0 0
349 1 1 0 652.3515879913156 651.7837489945634 649.5773292517563 0 0 0
350 1 1 0 661.0950609391118 669.854132486545 680.2932148308661 0 0 0
351 1 1 0 647.093223257304 647.1126474310873 653.3864577892144 0 0 0
352 1 1 0 660.7275632393469 671.1989066300572 680.0507869974552 0 0 0
353 1 1 0 671.8974347226998 654.464567845089 643.3970993532199 0 0 0
354 1 1 0 664.8909701137184 651.2068530424382 643.8762973517365 0 0 0
355 1 1 0 668.4639106777113 666.8595826925276 676.6239934678729 0 0 0
356 1 1 0 667.6641430211282 669.6573689944305 674.1637157351709 0 0 0
357 1 1 0 666.8733532233872 668.7424687874137 677.0110431314129 0 0 0
358 1 1 0 668.1720207000263 668.2295901505055 676.7347584239949 0 0 0
359 1 1 0 664.7430577851954 666.4262901464234 677.3872128161985 0 0 0
360 1 1 0 665.4993215541288 665.4407979590355 678.0861947600164 0 0 0
361 1 1 0 664.2158967716796 666.1376149139078 680.1433717670491 0 0 0
362 1 1 0 664.813485882462 667.2167760104948 680.862172660879 0 0 0
363 1 1 0 662.5969751895052 668.2309666986876 681.4178871180619 0 0 0
364 1 1 0 664.0190567173722 668.2010051150846 681.5476767892935 0 0 0
365 1 1 0 661.915291173495 669.4744544563383 681.3994323483726 0 0 0
366 1 1 0 662.4336056355099 670.5027565954928 682.1888758608422 0 0 0
367 1 1 0 660.8077644564723 672.0672370917098 681.1569586702894 0 0 0
368 1 1 0 661.732877237001 671.7277447841075 682.2048219654189 0 0 0
369 1 1 0 660.393222788373 673.4222763879477 681.0017673941255 0 0 0
370 1 1 0 660.9563837293318 674.4108550850174 681.9081058908812 0 0 0
371 1 1 0 666.4121352621153 666.0143064571666 675.3218267407485 0 0 0
372 1 1 0 667.3025716789895 665.9681087949028 676.4299963470975 0 0 0
373 1 1 0 660.7065125006699 668.0924336484347 674.5314830119706 0 0 0
374 1 1 0 666.8575561656273 665.3290000714767 677.6698839661016 0 0 0
375 1 1 0 666.8083340118606 667.4722499649895 679.3088553614036 0 0 0
376 1 1 0 669.21171034602 668.3239649951878 680.5858854901336 0 0 0
377 1 1 0 666.1515391277137 667.5592987926491 680.5738330837106 0 0 0
378 1 1 0 666.8162077896168 668.44120564792 681.4723302478079 0 0 0
379 1 1 0 664.6553880529355 669.395055968267 682.0447496090787 0 0 0
380 1 1 0 666.0311450153658 669.6136991705741 681.6127008805921 0 0 0
381 1 1 0 663.8561923571374 670.5568313443229 682.3292448121256 0 0 0
382 1 1 0 661.9011416291805 653.2154691280443 642.9542931170429 0 0 0
383 1 1 0 655.6092062024135 654.5404411027508 647.824528922915 0 0 0
384 1 1 0 651.1252143069158 654.9605825170347 650.1851531062794 0 0 0
385 1 1 0 662.7313458161512 657.5938892805862 646.5037932695516 0 0 0
386 1 1 0 664.2559131185432 656.7072465024265 642.088380093619 0 0 0
387 1 1 0 661.343505777632 657.8951252507813 646.6144369804697 0 0 0
388 1 1 0 663.4574339179255 657.6069043838822 645.2575591922389 0 0 0
389 1 1 0 660.6655919584109 657.6344349355323 647.9179441281091 0 0 0
390 1 1 0 664.7781993709992 656.9628940129219 645.3134232229528 0 0 0
391 1 1 0 677.9798342707188 651.8025643628417 668.9248229555989 0 0 0
392 1 1 0 660.6723231412346 653.4845799757245 643.7485116307249 0 0 0
393 1 1 0 658.9394425999724 654.3020428422741 646.4467861914552 0 0 0
298 1 1 0 677.0281410983675 654.6149936796694 643.3192349911493 0 0 0
2222 1 1 0 636.9381234287813 639.1672929766747 678.3226405074646 0 1 0
396 1 1 0 661.2642639261924 657.1646300390091 644.2438889114231 0 0 0
397 1 1 0 670.1450859909384 656.0719183534201 643.5926806578359 0 0 0
398 1 1 0 668.9526755462006 656.6061931555726 642.9606973247307 0 0 0
399 1 1 0 663.0740406820286 656.4352132179898 647.2272954849109 0 0 0
400 1 1 0 657.7871819393011 654.8691033369953 646.9722974576939 0 0 0
401 1 1 0 667.9288921887206 656.6596990784827 643.993808186287 0 0 0
301 1 1 0 675.0083069925929 677.0802600622749 645.2982664415034 0 0 0
46 1 1 0 673.6244403371763 678.6309262394402 644.1061193687921 0 0 0
404 1 1 0 657.5084453708499 656.2703120815122 647.0044911480422 0 0 0
405 1 1 0 661.0889543815052 654.9146841823708 645.5119368636012 0 0 0
406 1 1 0 660.7449241112242 654.8214295941709 644.1434477136278 0 0 0
407 1 1 0 668.4142846798854 656.2434134913157 641.6727564084794 0 0 0
408 1 1 0 664.7887701908032 655.6057985807128 645.8190378015577 0 0 0
409 1 1 0 656.5360788169647 656.6962088322875 647.9419598945009 0 0 0
410 1 1 0 659.9024014283501 655.2705221115491 646.1684817091888 0 0 0
411 1 1 0 657.0748221068178 657.2302762140793 649.1480368864209 0 0 0
412 1 1 0 663.9949040618848 654.2416822391041 642.015495066936 0 0 0
413 1 1 0 666.7131671440411 654.0319323640734 641.3026444984381 0 0 0
1484 1 1 0 642.2483851500623 645.7143200978585 678.164587739704 0 1 0
2443 1 1 0 681.3372551856633 651.7334933556 672.4319452716913 0 0 0
1129 1 1 0 678.311127014863 680.1475964004601 645.443674940279 0 0 0
3018 1 1 0 681.2982782234166 654.569844004831 667.830765946893 0 0 0
2457 1 1 0 681.668088658876 656.8685057086852 667.9310934696825 0 0 0
1616 1 1 0 674.1399926205238 679.100301010146 648.2661270245409 0 0 0
1580 1 1 0 636.8397961224862 642.5145613193387 679.2929616027676 0 1 0
1154 1 1 0 638.9305365131802 645.4910531046274 676.7719470541091 0 1 0
999 1 1 0 639.2566381336566 644.1309103717088 677.5661989232372 0 1 0
1111 1 1 0 640.3035928594929 646.1076746971719 676.3816902837852 0 1 0
1500 1 1 0 644.0358815823893 645.2220427947101 681.9314770841984 0 1 0
1497 1 1 0 642.6548114245081 646.7239445831613 680.4407404912926 0 1 0
414 1 1 0 672.5329827948387 677.950953402036 644.7446055555479 0 0 0
1173 1 1 0 674.9212662341141 680.6326603572232 644.9155602817711 0 0 0