LAMMPS data file via write_data, version 2 Aug 2023, timestep = 50000, units = metal

3836 atoms
1 atom types

638.0140598134375 721.9119401865631 xlo xhi
638.0963983165708 722.538601683426 ylo yhi
638.0001280807008 722.634871919296 zlo zhi

Masses

1 12.0107

Atoms # full

1 1 1 0 659.9490145449349 674.4107917266562 668.7107799642108 0 0 0
2 1 1 0 662.6680300343552 640.9483245699258 668.205293484384 0 0 0
3 1 1 0 659.3161211919894 676.5999340800354 667.9352877543552 0 0 0
4 1 1 0 660.3489232073811 675.7531460401623 668.4516980139308 0 0 0
1825 1 1 0 642.1028297802694 641.5299551320835 656.146321236345 1 0 0
362 1 1 0 677.30957947845 658.2870731992829 645.2973053503486 0 0 0
7 1 1 0 658.3120217433316 673.4466588583695 667.2276091868946 0 0 0
2998 1 1 0 642.3464460858464 640.0078610950516 657.8393551788731 1 1 0
1481 1 1 0 650.3710546967015 680.1006560459883 638.3295604506915 0 0 1
10 1 1 0 657.2125334034283 671.0741176694033 667.6109057799575 0 0 0
11 1 1 0 659.532354377265 673.2493025069733 667.9432402505568 0 0 0
976 1 1 0 658.8214019695771 638.5602624715646 676.3602190111277 0 1 0
13 1 1 0 660.4794981345606 678.5800699600236 668.9128718362191 0 0 0
14 1 1 0 657.9819690647928 674.7781663023636 666.9647784088316 0 0 0
15 1 1 0 660.3524517843612 679.8391067237886 669.5615653846081 0 0 0
16 1 1 0 662.5926621383103 679.6682460792559 670.4650378034295 0 0 0
17 1 1 0 661.5254778442842 677.7405201957737 669.3647446122402 0 0 0
1784 1 1 0 641.7335041192125 642.114385988826 654.0062323093609 1 0 0
1431 1 1 0 645.151991790033 675.1566538180623 646.3815934016558 0 0 1
20 1 1 0 677.4555347599154 654.0125826605201 642.9182064371065 0 0 0
21 1 1 0 659.2833782172553 677.9168622777916 668.5255312814204 0 0 0
1279 1 1 0 650.8951978796649 678.5312298124898 640.155837774352 0 0 1
23 1 1 0 674.3791910289654 656.1031346580403 645.2371727447852 0 0 0
24 1 1 0 657.2318272569811 676.0242500297514 668.9445022061487 0 0 0
25 1 1 0 659.1135865950818 680.2167363615068 670.1670855166223 0 0 0
791 1 1 0 668.9325771400624 654.7422987735208 644.0762373477503 0 0 1
755 1 1 0 671.3246087725917 657.7119820823286 643.2485124153889 0 0 1
28 1 1 0 658.0475058138137 675.9155138602218 667.7795466896127 0 0 0
29 1 1 0 658.2237569680339 678.0935873554579 669.4526988825108 0 0 0
30 1 1 0 676.7642012711381 656.951266602313 645.3300021890924 0 0 0
1588 1 1 0 645.7704956583581 677.5190942561243 646.00248733718 0 0 1
1714 1 1 0 651.0803028848784 679.8170395337307 646.5665546216484 0 0 1
1311 1 1 0 648.6774938734877 679.4810404714317 639.959867768826 0 0 1
1679 1 1 0 650.0773240948441 672.3292241482183 645.2665368780486 0 0 1
729 1 1 0 679.1005606174755 660.4466911980193 640.5440327806932 0 0 1
1222 1 1 0 657.7196825938781 641.7164697892318 679.882408842577 0 1 0
600 1 1 0 669.7716798534478 656.6668269726775 645.2459824590908 0 0 1
432 1 1 0 677.252445694097 657.0122128082287 642.090551850274 0 0 1
137 1 1 0 679.6910772316136 654.4777075256317 642.3966996210945 0 0 0
748 1 1 0 672.0104811337673 656.0226635558743 644.8922257026563 0 0 1
1476 1 1 0 652.7136236201518 678.4026363792404 642.3546986279752 0 0 1
1862 1 1 0 639.9984973081724 657.4058571701606 673.0434503541163 1 0 0
37 1 1 0 646.1819752453687 642.3082047901963 656.2410030324312 0 0 0
2122 1 1 0 639.5591486943132 656.4904944630389 674.4631318233799 1 0 0
1415 1 1 0 645.6224140187192 674.9585492373487 645.0922973423474 0 0 1
46 1 1 0 654.8633994349287 643.178227400918 678.9790129292759 0 0 0
1589 1 1 0 649.5412517779492 676.5312853902253 643.5665831468151 0 0 1
48 1 1 0 656.3426001619299 644.0745279505138 677.3064977456252 0 0 0
49 1 1 0 663.1557941769327 639.5922185911861 668.0202116379105 0 0 0
50 1 1 0 658.768896525193 642.0201901224438 675.214131602217 0 0 0
459 1 1 0 673.2344241598024 656.802720131476 645.1621136475164 0 0 1
52 1 1 0 656.3866368691495 643.0916244925244 675.1766005614579 0 0 0
1633 1 1 0 650.4731197809026 670.8316953260746 644.793681934912 0 0 1
1628 1 1 0 649.0678171575432 671.080898851081 644.0700308327855 0 0 1
1750 1 1 0 648.5376340505842 671.2323459793402 649.7638816745059 0 0 1
56 1 1 0 653.4321223411475 641.3117885258451 678.3903982659824 0 0 0
797 1 1 0 679.6726638340283 657.320310326835 639.7435295229875 0 0 1
825 1 1 0 651.1411651715093 672.6784268218304 649.8208087726457 0 0 0
767 1 1 0 669.1293242986608 656.9439954989311 642.0429738343561 0 0 1
60 1 1 0 655.7474499994114 641.1063950356111 670.9224398770389 0 0 0
363 1 1 0 677.7648562108621 658.6584484121599 644.0075322944584 0 0 0
1146 1 1 0 652.381719269402 671.7014835330455 647.8703311343039 0 0 0
1604 1 1 0 652.2452926367007 679.7278005064094 645.7891379664234 0 0 1
754 1 1 0 672.6606833153784 658.1391615447218 643.1917860915509 0 0 1
1647 1 1 0 645.6302303945807 676.3868056832476 646.9206166768026 0 0 1
66 1 1 0 648.34989583391 655.77091821324 646.215395645545 0 0 0
574 1 1 0 676.9360526734147 658.4639619402044 642.7597043183014 0 0 1
1484 1 1 0 652.9421895050381 679.1534496415945 641.1594654219286 0 0 1
69 1 1 0 640.3881462051073 658.8460843328185 672.4760962963087 0 0 0
70 1 1 0 643.4422762260186 659.1704056086874 641.375322891136 0 0 0
688 1 1 0 648.9872141903306 669.3066020770871 646.2751416418835 0 0 1
72 1 1 0 678.3137583137586 654.8310506244925 640.7268713912368 0 0 0
73 1 1 0 653.8305658147277 641.4348144240842 677.0406239230092 0 0 0
74 1 1 0 662.1759935769522 638.9685876954061 670.1170060989753 0 0 0
75 1 1 0 672.5829402226861 654.198797375141 643.2165223668222 0 0 0
2736 1 1 0 639.812476593734 638.849328525435 658.9380899776758 1 1 0
77 1 1 0 660.562293971976 640.4859354466569 670.7343320531088 0 0 0
78 1 1 0 642.9726133347789 658.1777453669218 642.2639738084038 0 0 0
79 1 1 0 656.6327195221112 667.3361244308134 669.7034632141047 0 0 0
1357 1 1 0 646.6716585497402 680.2475839577879 641.7846710204881 0 0 1
2734 1 1 0 638.4667309367675 638.3365560535854 658.9913090167763 1 1 0
82 1 1 0 657.483014582195 670.9042272250673 670.0525243998729 0 0 0
2208 1 1 0 640.4023911318327 659.8983929244438 669.3448723362504 1 0 0
842 1 1 0 653.4253574613487 638.9009896735728 678.0478524341632 0 1 0
802 1 1 0 670.3810495103123 655.9757520295913 646.4398973313773 0 0 1
86 1 1 0 655.7715799047108 668.1205247690275 668.8274227603813 0 0 0
1741 1 1 0 652.0800031622389 670.8559172942633 646.7319442348982 0 0 1
1703 1 1 0 647.371013380228 672.5087630736472 643.3056213747296 0 0 1
89 1 1 0 660.2575874849759 642.0080123886058 668.9647565678716 0 0 0
745 1 1 0 674.7270404125816 658.5433452190903 641.8448845448266 0 0 1
91 1 1 0 660.4274636956183 639.2900473062731 668.4905628977389 0 0 0
92 1 1 0 658.7862659484175 638.450247794624 666.2955635572803 0 0 0
768 1 1 0 671.5051941619523 656.556811252924 641.1007249511066 0 0 1
780 1 1 0 670.129881259112 654.5451890896132 643.2653749005103 0 0 1
746 1 1 0 675.7996504946587 656.8284783075533 641.9958271638119 0 0 1
96 1 1 0 656.4726861661168 642.3256159409498 670.7654063815866 0 0 0
747 1 1 0 675.5348259719673 657.8457852610156 640.6799212608884 0 0 1
1238 1 1 0 652.9786313440328 640.0368151956985 678.7976702802409 0 1 0
99 1 1 0 654.5923774005714 639.3715298601217 674.0277501804791 0 0 0
2848 1 1 0 641.2202700196316 639.2672143997384 657.1250694584562 1 1 0
1369 1 1 0 648.68138054731 676.9430018023154 642.540014609384 0 0 1
102 1 1 0 655.0481391164767 639.5527563566935 672.696865375369 0 0 0
103 1 1 0 672.4725751249822 654.6973523789873 645.6833236787888 0 0 0
104 1 1 0 654.1599056894341 640.4730350257338 674.7877792079706 0 0 0
105 1 1 0 673.7364594289671 654.1651441091426 645.215307527712 0 0 0
106 1 1 0 659.0253726572313 641.8494016342764 672.6824297672582 0 0 0
703 1 1 0 670.9488742898645 657.1288715421798 644.5052560894493 0 0 1
357 1 1 0 661.973466193928 638.160257910184 671.2559432959576 0 0 0
790 1 1 0 647.1608294582717 670.8024002907712 649.5136928319159 0 0 1
110 1 1 0 655.0996128632809 640.8620376676646 672.1624586470069 0 0 0
2579 1 1 0 639.4649469617433 639.6981714842128 651.185808579885 1 1 0
112 1 1 0 658.9894558798889 643.7046785857656 679.7315349766016 0 0 0
770 1 1 0 673.6024437570812 654.7481380599299 641.1289527836501 0 0 1
2964 1 1 0 644.2875692644773 640.3095247083147 653.7016870474804 1 1 0
2242 1 1 0 639.0363242082926 659.4345727824569 672.1851092815882 1 0 0
717 1 1 0 678.6541331907958 659.9039278694214 641.7041100504614 0 0 1
1591 1 1 0 650.4998848287917 673.2513937147153 644.2651207574286 0 0 1
118 1 1 0 659.0206910653765 640.7273095563274 667.193177407742 0 0 0
1747 1 1 0 650.2870436489784 669.6189701063465 645.7106113492529 0 0 1
120 1 1 0 658.9768985546519 672.8151249277386 670.0885245434823 0 0 0
121 1 1 0 660.116711639127 641.757675172566 670.4100219229492 0 0 0
122 1 1 0 658.1093461094592 639.5099972823682 667.0180694073981 0 0 0
1272 1 1 0 645.5264152007995 671.5847585180542 647.2780012848418 0 0 1
124 1 1 0 645.8373153851203 657.3300553088357 640.9408442566444 0 0 0
125 1 1 0 675.023366531921 654.7158190135186 645.8047395258635 0 0 0
430 1 1 0 649.1690134543106 668.9032017769395 647.6695643469357 0 0 1
1702 1 1 0 649.325269980918 671.2526705746352 648.6050402645606 0 0 1
829 1 1 0 646.8848870018023 641.1355544494219 656.4927835757912 0 1 0
129 1 1 0 657.0789174656348 640.2792180910595 669.0596154641872 0 0 0
130 1 1 0 659.8205849686061 640.0747665196635 674.2561670943333 0 0 0
131 1 1 0 645.8910625312238 658.7220930910873 641.3112355826073 0 0 0
132 1 1 0 655.1104155683131 643.4127562427888 677.6135268449525 0 0 0
133 1 1 0 658.0925658694538 670.1289603556827 666.9664565323993 0 0 0
134 1 1 0 658.0359897622512 679.2710985957812 670.1872396158732 0 0 0
135 1 1 0 657.3710446352667 639.2114959117883 668.1895703082172 0 0 0
742 1 1 0 674.8050863272807 658.2683477082049 644.124184609405 0 0 1
2466 1 1 0 638.7760734002104 656.4326812923174 673.2089989668274 1 0 0
138 1 1 0 644.7205125780557 659.4311778448492 640.8918888954523 0 0 0
769 1 1 0 671.2178774156512 655.0915604755347 641.2863526193845 0 0 1
1032 1 1 0 659.0177562149632 639.9475226582615 676.4980888039995 0 1 0
1670 1 1 0 652.5454933356579 672.753959025749 645.2185770014416 0 0 1
1657 1 1 0 646.9746975437248 672.4693419439899 649.606076130895 0 0 1
143 1 1 0 658.2990401081224 642.3916048328945 673.8604180352033 0 0 0
361 1 1 0 675.9846932941294 654.253905858105 640.9110707290955 0 0 0
145 1 1 0 659.5118814086655 670.7065185671529 668.8705347550738 0 0 0
1461 1 1 0 651.8835651966161 671.5096206596643 645.4545244137194 0 0 1
1235 1 1 0 658.6309847428402 640.5631642233291 677.6838028010899 0 1 0
2129 1 1 0 638.7078923563256 660.7441963790881 671.6574918810958 1 0 0
1213 1 1 0 652.8143490222697 673.0225677270757 647.5415845339497 0 0 0
150 1 1 0 659.2846826401222 640.718805777106 675.3544502337911 0 0 0
438 1 1 0 647.9474714706248 668.8007076854426 648.3949629334751 0 0 1
152 1 1 0 657.5827221044449 669.3692099568045 665.9174833240517 0 0 0
2786 1 1 0 639.7847680959798 638.8541853015712 653.6709072045661 1 1 0
154 1 1 0 678.7136258087914 655.6417417229678 644.1827986986673 0 0 0
771 1 1 0 672.4736304605535 654.4973964097006 641.8440497832946 0 0 1
1132 1 1 0 646.1513390873954 640.0479319912062 657.0212714774246 0 1 0
157 1 1 0 646.3201862011986 653.0992675763734 642.9890624828848 0 0 0
158 1 1 0 644.9206757811892 653.2831242606567 643.0070577140713 0 0 0
159 1 1 0 647.0468832358843 653.9650601623619 643.8563703949358 0 0 0
160 1 1 0 647.7440206106697 654.9758128483907 643.1667614181496 0 0 0
161 1 1 0 646.4270215175452 654.9221642746782 640.594100692327 0 0 0
162 1 1 0 645.1003463652896 654.5916085265361 640.2161218512542 0 0 0
163 1 1 0 647.2570306972196 653.7934272253619 640.8182710752177 0 0 0
164 1 1 0 646.9716807503879 652.8176294409519 641.7621382120074 0 0 0
165 1 1 0 676.2852805733814 654.1486834101984 643.8059263662776 0 0 0
166 1 1 0 646.4192358555413 659.1986773907526 642.566577635311 0 0 0
167 1 1 0 645.3945952140489 659.5577456109967 643.5036611698707 0 0 0
168 1 1 0 647.3883034248323 658.3902871669954 643.2486662218319 0 0 0
169 1 1 0 646.7206393796772 657.1378951505117 643.5338060372895 0 0 0
170 1 1 0 644.6848712028055 658.4484661375915 644.0332459746245 0 0 0
171 1 1 0 643.3084815578978 658.216086996067 643.6892390762617 0 0 0
172 1 1 0 645.5074904754925 657.2632312986777 644.3164863780622 0 0 0
173 1 1 0 644.8845531432678 656.2673386921487 645.1308562851101 0 0 0
2051 1 1 0 644.2016059754574 641.4428519508565 657.3094984507077 1 0 0
3152 1 1 0 645.2721758350162 639.3364006894758 654.0356550095496 1 1 0
176 1 1 0 646.6228228746998 656.1751730817698 641.2964498668072 0 0 0
177 1 1 0 647.0874938753209 656.0975875271045 642.6284878670336 0 0 0
178 1 1 0 648.5204037117361 658.6384657999146 644.027164979742 0 0 0
179 1 1 0 649.0897856802319 657.9571270382784 645.0549091229834 0 0 0
180 1 1 0 646.4907004895211 654.3748440436377 645.1066168373889 0 0 0
181 1 1 0 644.5410175730948 656.9871608384992 640.4487663797191 0 0 0
182 1 1 0 653.8281330024688 642.280431664001 679.3723160082893 0 0 0
183 1 1 0 657.67049308679 667.8906408784923 670.4641084850634 0 0 0
184 1 1 0 660.6720074400804 640.0820835563301 672.0541763123799 0 0 0
1726 1 1 0 647.5852748618073 673.0200839674053 650.9209710020681 0 0 1
784 1 1 0 675.1562410576164 656.1325704626722 643.0992397508473 0 0 1
1270 1 1 0 648.7750540518936 672.1176996220049 643.1113225721182 0 0 1
188 1 1 0 678.1386005700357 656.3869627216475 641.3360443254065 0 0 0
804 1 1 0 658.0150630335058 639.7437802962883 678.667292783319 0 1 0
190 1 1 0 658.3169644452767 642.6428770672263 676.4487847062014 0 0 0
1664 1 1 0 645.6117574114303 672.7914175092101 646.5927651387981 0 0 1
777 1 1 0 669.0308578816467 655.6698950733271 641.2715908875938 0 0 1
2065 1 1 0 644.5247412674019 641.6953072118196 653.8999636618455 1 0 0
194 1 1 0 661.5964373495764 641.8518413644401 668.3958793129963 0 0 0
195 1 1 0 663.2732945464315 638.9537806431623 666.7560151469213 0 0 0
80 1 1 0 655.7821456987404 638.5409001741308 672.0414286952645 0 0 0
828 1 1 0 652.5751149796275 639.8395099963701 680.1413524292985 0 1 0
198 1 1 0 679.5410527390677 656.6859254399524 640.9234471090962 0 0 0
199 1 1 0 679.6576556124347 659.3326485434674 642.6066427229616 0 0 0
200 1 1 0 659.0206984520182 641.6003854578557 668.3030533862636 0 0 0
744 1 1 0 675.4608642992082 658.7990207082015 642.9753614464589 0 0 1
202 1 1 0 662.3732445980094 678.2690242364235 670.3940394923452 0 0 0
203 1 1 0 660.0917561520738 639.6867612026298 667.1662713361975 0 0 0
1937 1 1 0 644.02295773581 642.3709059152329 655.0402316396328 1 0 0
205 1 1 0 656.1305078295843 643.3892945389309 671.5883662199656 0 0 0
206 1 1 0 678.6702825521263 654.5340935668913 643.330456097095 0 0 0
207 1 1 0 643.0306081488362 654.7602759277207 643.3906926734112 0 0 0
208 1 1 0 643.8087938327742 654.0590924585312 642.2225794413673 0 0 0
209 1 1 0 644.2848363381172 654.1492987172152 644.14857565543 0 0 0
210 1 1 0 645.1640627310885 654.8729839207954 644.9892138235286 0 0 0
211 1 1 0 655.0771492548492 642.6056976645447 675.3534549029304 0 0 0
212 1 1 0 657.8007010488902 642.1507163622662 670.3754562509127 0 0 0
1371 1 1 0 644.9562502993148 671.7798972844511 648.565167967253 0 0 1
214 1 1 0 658.6321559544014 642.0038586644287 677.7169440656361 0 0 0
1390 1 1 0 651.7217701663043 673.8273704719107 644.7039512039122 0 0 1
216 1 1 0 656.9795228247331 642.9852287954432 673.9037504090542 0 0 0
2832 1 1 0 640.1948468149058 638.3224456881262 654.8465548097357 1 1 0
218 1 1 0 656.738592088943 664.126078429647 666.9194229060126 0 0 0
219 1 1 0 656.6939760922724 664.0392553524066 665.4467530948651 0 0 0
220 1 1 0 657.9251871287793 664.917382907067 667.2568209388277 0 0 0
221 1 1 0 658.0745720296285 665.8116394072791 668.4141783388192 0 0 0
222 1 1 0 642.7734310985492 657.0249042678088 644.3230303827805 0 0 0
223 1 1 0 643.5248072545554 656.582101852932 645.4352955516097 0 0 0
224 1 1 0 642.5390951470187 656.0675956206076 643.2586318513604 0 0 0
225 1 1 0 642.7255278357098 656.7603869605729 641.9880190470985 0 0 0
1487 1 1 0 652.6751469207331 679.5479812367262 638.7872185035245 0 0 1
2076 1 1 0 640.6652683311671 658.4277915400833 669.8921148559588 1 0 0
228 1 1 0 657.2122802547811 665.3574580235721 664.991773256106 0 0 0
229 1 1 0 656.3304939090002 666.2922452459345 664.2922079842191 0 0 0
230 1 1 0 658.1587855749366 665.7513679007978 666.0465069173023 0 0 0
231 1 1 0 656.0900440597253 667.5895866075685 664.8767011988142 0 0 0
232 1 1 0 658.4026831803172 667.0685380739463 666.558105530235 0 0 0
233 1 1 0 658.8059546857755 667.0500440842501 667.9680949597431 0 0 0
234 1 1 0 657.3589168542951 667.9744002617429 666.3581373775684 0 0 0
235 1 1 0 655.3925104046685 667.2127208023351 667.7231130366582 0 0 0
1693 1 1 0 647.9509703290595 676.2162546803997 647.4980401983128 0 0 1
94 1 1 0 663.0235321260639 638.616922417932 669.0728340473066 0 0 0
238 1 1 0 657.7387899903802 676.8532122834599 669.9916616406966 0 0 0
433 1 1 0 677.3665276245689 659.2587238994987 641.5557356585183 0 0 1
240 1 1 0 675.4836879381606 656.8657830874781 644.5634945749592 0 0 0
1575 1 1 0 646.6806430373152 679.7845684442792 645.417277560114 0 0 1
242 1 1 0 660.126016514364 638.939289511496 665.8207803316669 0 0 0
243 1 1 0 657.2770552997197 679.0596149486129 671.388766027507 0 0 0
244 1 1 0 655.7858613495529 669.5219006070647 668.9162294304109 0 0 0
245 1 1 0 657.3868989697489 672.4054268335192 667.2263276790118 0 0 0
250 1 1 0 664.8681104123501 638.2060536398698 663.5308013704158 0 0 0
353 1 1 0 653.7859761655793 640.3329426184036 676.1398423674125 0 0 0
44 1 1 0 639.267163512786 656.2818911613359 668.9354002579629 0 0 0
759 1 1 0 673.7943208153821 656.0798389077277 640.5260653631947 0 0 1
1350 1 1 0 646.6014994960545 675.6179023008984 643.1299486894642 0 0 1
251 1 1 0 655.3393730976157 665.8100294367837 663.3935301543233 0 0 0
252 1 1 0 654.0714006220264 665.4832290835268 663.9759102562531 0 0 0
253 1 1 0 655.6332114836978 664.9422549284967 662.3020475769918 0 0 0
254 1 1 0 655.246102705175 663.6096151383358 662.5214212400462 0 0 0
255 1 1 0 653.9605764852209 664.1519650471475 664.4993552193292 0 0 0
256 1 1 0 653.640580335005 663.9759279594182 665.8539934581578 0 0 0
257 1 1 0 654.9283811607584 663.2774282888688 663.8839241647959 0 0 0
258 1 1 0 656.0512678538139 663.0386736598567 664.7140037226635 0 0 0
259 1 1 0 660.9833922851492 639.5990902083803 669.7453393146379 0 0 0
149 1 1 0 664.3240309137636 638.6949287133862 665.8558627858506 0 0 0
261 1 1 0 655.6539726108501 665.829559470129 668.1892372347926 0 0 0
262 1 1 0 656.8145142936879 666.0458326114307 669.0853168626553 0 0 0
263 1 1 0 655.5235340847604 664.5922281207434 667.5219192304114 0 0 0
264 1 1 0 654.3324870573953 664.0459887128887 667.0246973895687 0 0 0
265 1 1 0 647.3698651638277 654.8405501190174 646.0899268190401 0 0 0
1749 1 1 0 650.5436114805304 670.5784419055652 648.7872209422334 0 0 1
779 1 1 0 669.9594181614038 654.7777705543593 641.8183130765974 0 0 1
2756 1 1 0 638.8744977349243 640.3087946567535 657.0825675848183 1 1 0
1725 1 1 0 648.4607279349837 679.6153061282109 647.6010106503392 0 0 1
270 1 1 0 657.1297645497094 643.4150023189372 676.3340108911048 0 0 0
743 1 1 0 673.4822631502436 657.9372996334612 644.2851424612397 0 0 1
272 1 1 0 655.8809682515365 667.5236637178778 666.4319530407728 0 0 0
273 1 1 0 658.6125158223842 642.4878319375176 679.0779980082123 0 0 0
274 1 1 0 656.8133777930575 668.8651734496253 664.6565813666875 0 0 0
275 1 1 0 656.7715395147796 645.0384336134811 678.2442814325801 0 0 0
276 1 1 0 656.1597019723469 679.7804201871579 671.9186648365549 0 0 0
1696 1 1 0 649.9493433684885 674.7040523670555 649.2428213247816 0 0 1
278 1 1 0 659.0482627745995 668.3349865610969 668.5015816093088 0 0 0
1590 1 1 0 648.5647553771981 675.2844336417575 646.6237871860316 0 0 1
280 1 1 0 673.8043369741907 654.013341482987 643.8179385246924 0 0 0
1535 1 1 0 649.9480757865533 679.2551896451441 639.3912400471158 0 0 1
282 1 1 0 658.9679420994589 642.1559933000682 671.2050049247146 0 0 0
283 1 1 0 662.8474636599123 680.0355281068122 674.7954839496343 0 0 0
284 1 1 0 671.1689735899397 654.8300468110857 646.2917824796534 0 0 0
1373 1 1 0 650.1015179182898 676.1212642017142 648.8254019390286 0 0 1
800 1 1 0 671.509264856562 654.8025144414937 643.8824632919809 0 0 1
1733 1 1 0 648.7727330330114 672.1181383677028 650.8276008056131 0 0 1
215 1 1 0 663.8617253382299 638.5848771264725 664.4771816552344 0 0 0
289 1 1 0 662.4820734442801 678.7070529272269 675.1015739435103 0 0 0
290 1 1 0 655.0189112436025 641.9375122643414 673.0796682818461 0 0 0
291 1 1 0 659.5312470289014 672.1064491561026 668.8841934107145 0 0 0
292 1 1 0 674.8133100060479 654.2198663459021 641.7088396464056 0 0 0
293 1 1 0 643.577642226806 656.1570292871608 641.0408448323482 0 0 0
1024 1 1 0 651.5788826412166 671.5110795893702 649.0429128049188 0 0 0
295 1 1 0 659.1842498654458 669.6753850538178 667.8229660168876 0 0 0
2585 1 1 0 639.8857922072549 640.7245855243143 652.0288648170093 1 1 0
297 1 1 0 677.5189708487148 655.7280071465924 645.2105877510317 0 0 0
298 1 1 0 676.4629758158103 654.6886558542188 645.1055869736646 0 0 0
299 1 1 0 656.2018047536399 640.019222292014 670.157748915713 0 0 0
300 1 1 0 654.5459647700586 642.5698847552485 676.6505706023155 0 0 0
301 1 1 0 643.9723801087933 654.8019343863887 641.0384423948842 0 0 0
2581 1 1 0 644.4444380133634 639.2209317998293 658.4482973167926 1 1 0
303 1 1 0 658.6331563872166 668.6946846286274 669.8429728202964 0 0 0
304 1 1 0 657.7860964415706 672.1955817714419 670.5688944770185 0 0 0
3148 1 1 0 641.8474772379591 640.7290503373243 653.5831009509674 1 1 0
1617 1 1 0 649.56298050266 673.3019105481111 643.2142362431701 0 0 1
307 1 1 0 679.1405767060478 658.4621582132395 643.6944421318545 0 0 0
308 1 1 0 658.6872537553451 670.1083814067722 669.962352277241 0 0 0
309 1 1 0 648.8006274678303 657.0293032891353 645.9977337197438 0 0 0
1656 1 1 0 647.8731631185888 673.075213709112 648.4451275958502 0 0 1
757 1 1 0 672.8273198094885 657.0329253053283 640.8997301335454 0 0 1
312 1 1 0 674.9528366628766 654.6012676246365 643.1515184417142 0 0 0
313 1 1 0 679.5598048776505 657.0525536428833 643.7265028172018 0 0 0
314 1 1 0 657.9108824526603 641.4224608181692 669.1615684126094 0 0 0
84 1 1 0 656.2305916498644 638.7256704678003 670.7172419136218 0 0 0
1713 1 1 0 646.860201875083 670.6592404127143 647.1279211999192 0 0 1
317 1 1 0 677.3217433376105 653.9530856033609 641.5241827760793 0 0 0
318 1 1 0 656.8193220883966 644.5988832332154 679.5812721252513 0 0 0
319 1 1 0 655.9832389983923 643.4747643773075 679.7965426297529 0 0 0
320 1 1 0 656.6359709054238 670.6483665203102 668.8842978028581 0 0 0
2069 1 1 0 638.7381519915516 656.0102858119087 675.4858600132749 1 0 0
322 1 1 0 658.640699507421 679.5554123151304 673.2407951390977 0 0 0
323 1 1 0 659.8549668417572 679.3892508309525 673.9386509224557 0 0 0
1639 1 1 0 647.877743903855 670.8090058992622 644.8077934165399 0 0 1
1661 1 1 0 646.85231585135 672.8613640550105 645.6527195429996 0 0 1
326 1 1 0 659.8638118842908 640.7098037614007 673.0021323083748 0 0 0
327 1 1 0 655.9709499106683 642.9905515554391 672.9118549097066 0 0 0
328 1 1 0 679.7930603491224 654.0745130122307 640.9065481045541 0 0 0
1721 1 1 0 649.0339020868533 671.8828007431772 647.3544304149357 0 0 1
434 1 1 0 668.7006482267218 656.1462927005539 644.4012770128724 0 0 1
331 1 1 0 658.1207101392175 678.509469230549 672.4175313028688 0 0 0
332 1 1 0 660.5772842458016 678.1778340441075 673.6866273461856 0 0 0
333 1 1 0 661.9771697653274 678.0887802798119 673.9519790582225 0 0 0
334 1 1 0 663.9436303176896 680.1008748516824 673.8631929935256 0 0 0
758 1 1 0 675.1783525809085 656.3465643545427 640.1918849808667 0 0 1
336 1 1 0 654.5634976072009 641.7450967471925 674.3808171228551 0 0 0
337 1 1 0 658.8110252837548 677.3083201662364 672.1737570848429 0 0 0
338 1 1 0 658.4716642784003 676.3559102355085 671.145372322385 0 0 0
339 1 1 0 660.145667105966 677.2930997330512 672.6715223078008 0 0 0
340 1 1 0 661.1622199993394 676.794602669199 671.8253345763616 0 0 0
341 1 1 0 662.8200563190945 678.2154677029877 672.7897989823581 0 0 0
342 1 1 0 662.3113187021983 677.6028461990016 671.6388013972727 0 0 0
343 1 1 0 663.6245508068276 679.3992554172016 672.656605765433 0 0 0
344 1 1 0 663.4407427422933 680.1855690307993 671.4797395603674 0 0 0
429 1 1 0 678.05898560018 656.3294842593882 638.5542198262748 0 0 1
2836 1 1 0 643.0463637542161 639.2339452829827 658.7580413588285 1 1 0
1622 1 1 0 647.1628619628697 674.0997652605223 643.3145846702882 0 0 1
241 1 1 0 661.3627301590956 638.5635710903081 665.3254956279936 0 0 0
349 1 1 0 659.4877573841682 675.3522200346086 670.8715675435913 0 0 0
350 1 1 0 659.3991807787285 674.1877831467683 670.0560617874556 0 0 0
351 1 1 0 660.7791518239823 675.9641828490884 670.7779795076414 0 0 0
352 1 1 0 661.1543352619395 676.3664589508787 669.4662940212603 0 0 0
2050 1 1 0 638.4032877381833 661.2758094512051 669.6816769666211 1 0 0
3005 1 1 0 640.3705439874652 640.2350741587528 653.3698020185606 1 1 0
1028 1 1 0 653.7891418075812 639.0419912818695 676.6850707171695 0 1 0
778 1 1 0 668.2314614027558 656.917399244191 643.1703730530659 0 0 1
876 1 1 0 657.5997174198889 640.3297278172932 679.859260135496 0 1 0
749 1 1 0 677.4460942094473 655.4083485257504 639.4570005698205 0 0 1
786 1 1 0 647.0784885878568 669.9348066891841 648.4492552566547 0 0 1
766 1 1 0 670.6761828330701 657.2710416556208 642.0337226862532 0 0 1
756 1 1 0 673.3622504540664 658.1380759207286 641.9292984406555 0 0 1
1638 1 1 0 647.8104803486467 670.0459089283409 645.9653372155642 0 0 1
2116 1 1 0 644.7662611276293 642.2552110978411 656.2524722476023 1 0 0
724 1 1 0 676.801805418636 658.7727777751655 640.3678944716261 0 0 1
2765 1 1 0 645.0380492974591 640.4463140476214 657.9031588255318 1 1 0
1727 1 1 0 647.4580282600978 672.2114239554066 647.0904398826864 0 0 1
31 1 1 0 661.2672110918418 638.8164500621975 672.2913309931984 0 0 0
445 1 1 0 678.4376880534668 657.6926757587074 638.9612317356074 0 0 1
1666 1 1 0 645.5712679054805 672.8453234214958 649.2732807030156 0 0 1
763 1 1 0 650.5523425989351 669.3792478802663 648.0193600969778 0 0 1
1618 1 1 0 646.1630191585931 679.6591556893919 644.1018220795157 0 0 1
760 1 1 0 676.1194439800131 655.3446245323322 639.9852640127789 0 0 1
1611 1 1 0 649.7574768645585 672.7508994422441 646.5116567601791 0 0 1
1754 1 1 0 651.2778966973663 669.6459406525163 646.7793967509563 0 0 1
1756 1 1 0 650.0170765166024 672.8989684177063 650.7756531541535 0 0 1
1621 1 1 0 646.9413591746354 674.2243157839567 644.998083457432 0 0 1
1677 1 1 0 645.4999986631987 674.1199119076763 648.6539672585122 0 0 1
1430 1 1 0 648.0306305955788 674.3583267445952 650.79491170888 0 0 1
3016 1 1 0 645.0994115226863 638.6206430468035 655.2417817578879 1 1 0
1226 1 1 0 660.0465159727086 638.6870963261518 674.3253233603051 0 1 0
1663 1 1 0 646.9640475759711 671.8687734917734 644.5278708720596 0 0 1
1375 1 1 0 650.8750238464553 676.2648815525315 647.6721769205893 0 0 1
1640 1 1 0 645.2260067214178 674.0164579459728 647.2240393623894 0 0 1
1363 1 1 0 648.1573947370475 675.1632908579979 645.3152179815995 0 0 1
439 1 1 0 678.566981285735 660.0705382800886 639.2528563187035 0 0 1
765 1 1 0 677.7469895659906 658.8563935360497 639.356377531559 0 0 1
1649 1 1 0 648.9174595364201 673.879004492297 648.3281637284267 0 0 1
1603 1 1 0 648.9728393261781 675.4039531729431 644.1931197866202 0 0 1
3142 1 1 0 642.8212683652463 641.168330228252 657.2736453431257 1 1 0
1701 1 1 0 646.3346782276486 675.2234688996324 649.0523078144109 0 0 1
1488 1 1 0 649.4619433513697 674.3045620986605 650.6382447038096 0 0 1
884 1 1 0 653.4310182696737 673.1131669870738 646.2719717656745 0 0 0
1443 1 1 0 648.0520146379873 676.6104294764318 650.0595135037111 0 0 1
3118 1 1 0 642.9404694515396 639.8563163651994 653.8525071500113 1 1 0
1243 1 1 0 648.7124810827434 674.3957470148091 643.2419778707808 0 0 1
1242 1 1 0 651.5964384206034 676.3693699405615 644.8903458806234 0 0 1
1694 1 1 0 651.2853815657231 673.9150564991472 649.1236109255204 0 0 1
1699 1 1 0 649.699265152442 674.2589936143173 646.9452005744288 0 0 1
3062 1 1 0 641.2430847851543 640.5788929724133 655.6392040772062 1 1 0
2842 1 1 0 641.3934938599576 639.0123233571009 655.4961049231634 1 1 0
1720 1 1 0 647.290623213482 675.4065258663983 650.1467590112105 0 0 1
1027 1 1 0 651.9333755584597 674.0455797098615 647.9173258045615 0 0 0
2095 1 1 0 641.1564056685673 658.9412345257439 671.2219999239288 1 0 0
1606 1 1 0 645.6481090679938 675.9603595715188 644.1258369020529 0 0 1
1768 1 1 0 642.601772149744 642.3765469544376 655.1386554694838 1 0 0
1567 1 1 0 651.4532352101197 677.6842048478826 642.5020052007995 0 0 1
1687 1 1 0 646.6029903085963 676.0891490914299 647.9314620482776 0 0 1
1723 1 1 0 651.1121181791502 674.9107545960337 646.9239693630825 0 0 1
1599 1 1 0 647.2793488680319 676.7016639276754 642.5648276079248 0 0 1
1700 1 1 0 651.6083278969693 675.0566376807569 645.4329854106462 0 0 1
2809 1 1 0 642.7321911131601 638.8573220962179 654.8549000793587 1 1 0
1319 1 1 0 650.9434381530499 676.8453195048521 643.6248677130513 0 0 1
1767 1 1 0 640.2413763496206 642.387229203366 654.1494043374859 1 0 0
3144 1 1 0 638.8912778067977 640.888116648147 655.7792224092932 1 1 0
847 1 1 0 657.5451898526637 638.4564342257153 678.378590844347 0 1 0
1310 1 1 0 645.5706133349956 677.3105652262093 644.595494280822 0 0 1
1689 1 1 0 648.9984413077143 676.9091876789329 649.070703866971 0 0 1
1573 1 1 0 648.4368265179453 677.6357398966323 647.8046694306742 0 0 1
1680 1 1 0 651.2302354573785 677.4388006924879 647.0596462443815 0 0 1
1900 1 1 0 638.9171992824283 657.3610113643483 677.6310725755887 1 0 0
1651 1 1 0 651.9542213412607 677.3573859679772 645.8623088695542 0 0 1
2818 1 1 0 640.0717272650439 640.9836777594381 654.8678264108406 1 1 0
1544 1 1 0 650.5337521975123 677.9236299265976 641.3826107100327 0 0 1
1286 1 1 0 646.5228084489701 677.9185238437245 642.4803291362954 0 0 1
1356 1 1 0 649.1544634779784 677.7922670531433 641.577792764247 0 0 1