LAMMPS data file via write_data, version 2 Aug 2023, timestep = 50000, units = metal

39804 atoms
1 atom types

629.6679139423226 743.0200850576706 xlo xhi
630.2659224663148 743.1310765336782 ylo yhi
629.9855006559462 743.4114983440468 zlo zhi

Masses

1 12.0107

Atoms # full

1 1 1 0 637.5514780400177 632.0394326414264 675.5998482382566 0 0 0
6109 1 1 0 636.1425160659833 681.1603901717352 686.238809850606 0 0 0
3 1 1 0 648.4026755373432 638.1247462231145 666.6454913346317 0 0 0
4 1 1 0 637.0004885125647 637.6610888822024 679.2564179288012 0 0 0
5 1 1 0 658.0470484626165 680.5882201471757 677.6530273091624 0 0 0
6 1 1 0 639.1051079176068 635.7783876964804 678.3490142395005 0 0 0
7 1 1 0 630.3785635005396 631.5418477251962 641.0741215440307 0 0 0
8 1 1 0 635.8104852629458 638.6266293471107 681.289605733798 0 0 0
9 1 1 0 637.6298873972012 636.7380074107164 680.1531222563565 0 0 0
10 1 1 0 636.8109857756925 639.2821134968162 633.5006614498744 0 0 0
11 1 1 0 638.295327383733 641.1672984928205 633.7844010419013 0 0 0
12 1 1 0 637.8973679934079 639.8351576791209 634.1537099697236 0 0 0
9878 1 1 0 671.7463179084505 675.5412211167368 630.1103088160813 0 0 1
14 1 1 0 636.7474524477395 637.8556875854127 633.6231934978184 0 0 0
15 1 1 0 638.5718917536789 639.2874616288786 635.2719007137983 0 0 0
16 1 1 0 684.1830208665825 682.7471836684035 677.5721266849192 0 0 0
17 1 1 0 639.625422054726 643.1445427250387 634.3751407453185 0 0 0
18 1 1 0 640.181992236226 645.6058872154224 634.8353724054615 0 0 0
19 1 1 0 639.9632707391199 644.0563801051233 635.4062973287248 0 0 0
20 1 1 0 669.6564129756835 632.2691315219821 652.0192348722649 0 0 0
243 1 1 0 663.5464759561288 670.7732979558838 630.6696958121598 0 0 0
22 1 1 0 637.5162547796276 637.6640033991719 677.9173230001503 0 0 0
23 1 1 0 647.1874648105171 637.9212119992019 665.7225058556339 0 0 0
24 1 1 0 637.4942230922834 634.2049429074318 674.6017592574674 0 0 0
25 1 1 0 638.0732095105213 634.6615176021097 675.7835864439542 0 0 0
26 1 1 0 639.1559192818056 641.8756974825495 634.6428727442426 0 0 0
27 1 1 0 638.9549114579086 641.5442134823918 636.0390646615 0 0 0
28 1 1 0 639.1125111869244 643.9575902587678 636.53542438979 0 0 0
29 1 1 0 638.7040578235645 642.6416449460746 636.9510775457715 0 0 0
30 1 1 0 638.2654358052065 645.1079850131332 636.7439311645563 0 0 0
31 1 1 0 636.9412210219188 644.7544990395571 637.0201245045391 0 0 0
13558 1 1 0 680.0986136082411 630.6351346214161 654.8367595452625 0 1 0
33 1 1 0 635.9386501627044 645.6671832175062 636.5485008698595 0 0 0
34 1 1 0 645.8323242978298 636.457839634309 667.8810401843725 0 0 0
35 1 1 0 638.9562310398226 657.2812600956805 676.8428783088273 0 0 0
36 1 1 0 637.9561514012357 636.4024322850321 677.5151876163446 0 0 0
37 1 1 0 638.7656787337525 640.2060230063274 636.4077251277604 0 0 0
38 1 1 0 637.5231046772483 642.461495149003 637.7283211626886 0 0 0
39 1 1 0 636.5154405310049 643.5476853647481 637.5912338866797 0 0 0
40 1 1 0 634.5359830669676 645.2795820693907 636.6275936636665 0 0 0
41 1 1 0 638.2184887734012 632.535322469602 676.7392018803943 0 0 0
42 1 1 0 651.0049115826803 636.1200305845947 664.4827009657835 0 0 0
43 1 1 0 635.6178114361868 635.8368294759516 633.0740322603506 0 0 0
44 1 1 0 637.6873418380795 637.1061953880327 634.4631725937604 0 0 0
45 1 1 0 638.3635513421679 637.8603825514758 635.539156422236 0 0 0
46 1 1 0 636.5747080588752 634.9641157780462 633.7152925222452 0 0 0
47 1 1 0 636.7859050302965 633.5805761373786 633.9298429749579 0 0 0
48 1 1 0 637.3844286423634 635.7227145526072 634.6855772551804 0 0 0
49 1 1 0 637.4972964329919 635.1641256415538 636.0219688414495 0 0 0
50 1 1 0 637.9609266936066 637.486988651619 636.868608211531 0 0 0
51 1 1 0 637.3410328517675 636.1061310657126 637.0664501589112 0 0 0
52 1 1 0 636.8371512391558 632.9166987138788 635.1225832121465 0 0 0
53 1 1 0 633.8018534078252 645.3346899967282 635.3960989408499 0 0 0
54 1 1 0 636.7920443933741 633.8672086767803 636.1464625979404 0 0 0
55 1 1 0 635.6619669957879 633.743280860554 636.9674326979456 0 0 0
56 1 1 0 636.0707764342748 636.1046273837001 637.5977429228235 0 0 0
57 1 1 0 635.2044716175566 634.9596622907236 637.5433287433025 0 0 0
58 1 1 0 635.9831860125381 638.3802002794278 679.890407577346 0 0 0
59 1 1 0 652.8677514540813 638.4032412505902 663.7040505391967 0 0 0
60 1 1 0 634.6733220191227 632.6584445707547 636.6717611316385 0 0 0
61 1 1 0 633.3806011015395 632.8709976390625 637.1350857794838 0 0 0
62 1 1 0 633.8549933023382 635.2003562137139 637.3015265950539 0 0 0
63 1 1 0 632.9191204550336 634.1956418941373 637.4003632802136 0 0 0
64 1 1 0 633.5003366372194 665.302589810178 652.3876726727482 0 0 0
65 1 1 0 634.3920959323724 664.4439816528675 651.7258561623 0 0 0
66 1 1 0 639.1524226757255 633.8614457661429 676.4953310119242 0 0 0
67 1 1 0 638.2259652950228 638.1469459575607 675.554131884997 0 0 0
68 1 1 0 631.608883863953 634.4857797275262 636.9171892531564 0 0 0
69 1 1 0 630.6118167648227 633.5519634373331 637.0889262115122 0 0 0
70 1 1 0 636.9654605061147 682.2979631271293 631.4328560278876 0 0 0
71 1 1 0 672.1712811726454 678.4540193913249 637.2598894800545 0 0 0
72 1 1 0 638.3945823862217 631.6313006819059 670.4815727859983 0 0 0
73 1 1 0 636.0614818430371 632.2010906564116 667.9099721347027 0 0 0
74 1 1 0 643.865566422149 636.705406695275 669.423188004517 0 0 0
75 1 1 0 668.8897219345913 653.5799646879988 636.5216818471672 0 0 0
76 1 1 0 660.6754228637794 677.1914857138484 674.3689283889552 0 0 0
77 1 1 0 640.5784905752412 640.6089173636333 642.4324149336184 0 0 0
78 1 1 0 633.8341417210668 669.732052109998 636.3882354250113 0 0 0
79 1 1 0 668.5366322095656 653.1210073228215 635.2447044460919 0 0 0
80 1 1 0 640.7820065724339 633.4783562594073 682.595961671554 0 0 0
81 1 1 0 637.8473931069227 639.9680217604244 637.4881768143912 0 0 0
82 1 1 0 637.0211466694986 641.1059904422071 637.8419554962935 0 0 0
83 1 1 0 635.110207122153 643.2383880973854 637.6676318430066 0 0 0
84 1 1 0 634.1067949746499 644.2655792230069 637.5959196179903 0 0 0
85 1 1 0 632.6154079511208 644.5169201557255 635.422335638946 0 0 0
86 1 1 0 682.183186092943 680.4343139190685 649.6955719927452 0 0 0
87 1 1 0 637.4174637769349 638.6178810407683 637.6337244316212 0 0 0
88 1 1 0 636.0089629907488 638.5414301576287 637.5106192465172 0 0 0
89 1 1 0 635.6826364015492 640.9500028574828 637.5289524918364 0 0 0
90 1 1 0 635.292658773269 639.6648643240317 637.1647485964664 0 0 0
91 1 1 0 634.7351317828094 641.9224226215771 637.4088696655417 0 0 0
92 1 1 0 633.4746719924856 641.447517446502 636.9719136384989 0 0 0
93 1 1 0 632.652161638729 644.0423460065322 637.7904600597716 0 0 0
94 1 1 0 632.2845286841489 641.7209532464441 637.6109421530911 0 0 0
95 1 1 0 631.8934261779315 644.2307143133578 636.6061413473376 0 0 0
4777 1 1 0 679.5293110282561 685.9364702301399 646.7536413383755 0 0 0
97 1 1 0 639.1583524150951 681.2050462372135 631.3481135410387 0 0 0
98 1 1 0 648.697042370699 636.2172222512281 663.9707272680822 0 0 0
99 1 1 0 655.1927591228222 683.6441399554301 680.1708187367881 0 0 0
100 1 1 0 654.0991327420768 684.6554646442237 669.992947651416 0 0 0
101 1 1 0 635.3664105338586 637.3057896504256 637.4126414552134 0 0 0
102 1 1 0 634.3417694817996 637.3406714590462 636.4725141246888 0 0 0
103 1 1 0 634.4533492967928 639.5609457795122 636.0254759227573 0 0 0
104 1 1 0 634.1211263045051 638.3116665293846 635.6389343600498 0 0 0
105 1 1 0 633.4155142300638 640.4881908528963 635.9165786887453 0 0 0
106 1 1 0 639.6565167128069 633.2232734204348 685.10860142879 0 0 0
5752 1 1 0 665.3387128913657 651.2826515530852 630.0925004537808 0 0 1
1553 1 1 0 659.7750054264903 683.0598586685136 686.1818790538227 0 0 0
109 1 1 0 639.8871977296234 669.5107114272225 634.3411376507108 0 0 0
110 1 1 0 636.4175067740853 670.7875258566635 633.5730590732392 0 0 0
111 1 1 0 650.3434804549875 633.1397667583208 661.1251813006708 0 0 0
112 1 1 0 668.6372320154078 673.7296516313825 636.4235449608846 0 0 0
113 1 1 0 637.2610186933867 632.8157333894655 674.4337126563843 0 0 0
114 1 1 0 637.7291643023641 638.5866249434437 676.8822731854805 0 0 0
115 1 1 0 633.495671032141 636.2421880463315 636.4169151361469 0 0 0
116 1 1 0 632.477634527469 636.1058285552139 635.4958518445785 0 0 0
117 1 1 0 633.3058247403196 638.0628232045058 634.2990820238547 0 0 0
118 1 1 0 632.542723410465 636.7439303767953 634.2990954521639 0 0 0
119 1 1 0 644.5523574417248 656.8734949158696 634.335056909543 0 0 0
120 1 1 0 637.4677602062966 669.021900736857 635.3850654349159 0 0 0
121 1 1 0 635.2131569131774 673.4714989729757 635.4046696828234 0 0 0
122 1 1 0 632.7154059699501 667.3700763898353 666.6270630744908 0 0 0
123 1 1 0 641.5769091944405 675.14976124744 631.6299437049571 0 0 0
124 1 1 0 654.4472683416149 632.6769158702058 650.3452687582985 0 0 0
125 1 1 0 637.1063411738861 668.5086403510779 637.7145047402195 0 0 0
126 1 1 0 647.4111006406876 635.7381301095733 664.6458884825672 0 0 0
127 1 1 0 634.0445726810851 644.8200685580376 633.1344346886254 0 0 0
128 1 1 0 671.8885487677263 679.4231312627925 636.2423261304345 0 0 0
129 1 1 0 631.4788949425163 635.2075951240265 635.754293511166 0 0 0
130 1 1 0 643.9192022891602 666.4726132922244 632.1637074209955 0 0 0
131 1 1 0 639.9846414922941 680.0282801603707 631.3980326071046 0 0 0
132 1 1 0 650.4922949551824 636.5948752485739 661.092534974782 0 0 0
133 1 1 0 669.4628245818043 678.374306367053 631.4271174412678 0 0 0
134 1 1 0 634.7769649507192 683.3462455684613 631.4006034790657 0 0 0
135 1 1 0 634.6664776785092 670.1260702422496 648.0862278562638 0 0 0
136 1 1 0 633.9218279214132 672.0349125389994 633.7661986169285 0 0 0
137 1 1 0 673.4219336797177 651.8497416748809 635.389494947359 0 0 0
138 1 1 0 631.8021471164321 671.0753008313905 635.3926788065113 0 0 0
139 1 1 0 685.6472166127411 679.9068415346877 677.3074541594517 0 0 0
140 1 1 0 638.915235825246 643.6106525595014 643.8185751938987 0 0 0
4914 1 1 0 679.1720323235816 631.1653845922101 649.935521135769 0 0 0
142 1 1 0 660.455958221932 685.4033727561414 662.7477588003583 0 0 0
143 1 1 0 668.6833538364618 676.8481652233055 633.680907637315 0 0 0
144 1 1 0 645.9148512666291 638.4653150916855 666.4871005652399 0 0 0
145 1 1 0 637.2342508194821 633.2269838339713 671.9958774339331 0 0 0
6135 1 1 0 667.6734981168083 669.87871444981 630.2774201206712 0 0 1
147 1 1 0 673.0617084676468 651.8503899190213 634.023075835383 0 0 0
148 1 1 0 634.2709826122343 660.8084877167518 682.4802959068662 0 0 0
149 1 1 0 682.1688574718168 681.168903741857 646.039815390553 0 0 0
150 1 1 0 672.2113359627151 633.2660427029047 681.5032319877859 0 0 0
151 1 1 0 672.6909425134523 632.8240513616086 680.2228922002083 0 0 0
152 1 1 0 660.7045568055128 685.0407560946061 661.328714550993 0 0 0
4510 1 1 0 645.1828117859419 630.420772183651 666.3934995243882 0 0 0
154 1 1 0 682.097477933092 683.423798313906 679.9172607242617 0 0 0
155 1 1 0 654.6132669612994 683.4097914135947 685.0455014539695 0 0 0
197 1 1 0 637.4733948436575 631.0035335826465 672.8414109278255 0 0 0
157 1 1 0 673.4705785192979 654.0768184596179 636.6478877763611 0 0 0
158 1 1 0 663.6441128613958 679.92676029305 682.7826211213819 0 0 0
9857 1 1 0 671.1152810325765 674.3259434626528 630.1958173754867 0 0 1
160 1 1 0 675.389476841661 632.3229556059881 652.9154885199978 0 0 0
161 1 1 0 660.9752461022102 682.9093410014699 679.2175178656547 0 0 0
162 1 1 0 658.4347987132192 685.9594554093296 660.8841521369734 0 0 0
163 1 1 0 661.2704050164645 682.4648840297637 682.2546952388194 0 0 0
1497 1 1 0 682.6343992133261 631.9190204899447 649.0628327453763 0 0 0
165 1 1 0 642.3702170958256 656.762670744175 636.3177494959953 0 0 0
14198 1 1 0 682.0358222428785 630.556258484349 659.284294624553 0 1 0
167 1 1 0 649.2347787658455 662.9939650115705 632.8033116582503 0 0 0
168 1 1 0 641.039624326897 669.3099080785883 635.3813365433259 0 0 0
169 1 1 0 638.5873619471438 635.8571181501975 679.7851360819421 0 0 0
170 1 1 0 646.5088519613461 663.9327648444046 630.7334310473361 0 0 0
171 1 1 0 681.8551299481927 683.4643862959044 677.5313591539782 0 0 0
172 1 1 0 642.9607550196964 658.0162288451903 636.0672987303617 0 0 0
173 1 1 0 657.0935247109036 683.6561617011515 663.7144754147612 0 0 0
24394 1 1 0 630.0961732134409 660.6236946407 655.3952165993687 1 0 0
175 1 1 0 680.3800651467963 632.0505822328893 649.9735084202869 0 0 0
176 1 1 0 637.2222985753302 632.3846045380283 673.1184479659792 0 0 0
177 1 1 0 642.9087434172486 655.7164670723184 635.6150423570002 0 0 0
178 1 1 0 639.3707104592617 678.7919219615737 631.6164026906214 0 0 0
179 1 1 0 665.614127908905 655.3543388470792 632.8848796626052 0 0 0
180 1 1 0 683.2306541293965 683.628177228571 677.0307533258592 0 0 0
1450 1 1 0 671.6082626788686 632.2244328056726 630.2262970370684 0 0 0
182 1 1 0 683.1233159179209 685.7241891081613 679.615552666723 0 0 0
183 1 1 0 670.7657483961772 669.3436357873603 685.1765785470361 0 0 0
184 1 1 0 632.0675049284965 669.3931052056902 681.9283653961278 0 0 0
2523 1 1 0 630.045974130527 634.227635051248 641.3281880232256 0 0 0
9951 1 1 0 635.3480765540276 684.5740730950845 631.1102159609417 0 0 1
187 1 1 0 636.9458862661406 633.7397478944863 685.1265647861769 0 0 0
188 1 1 0 669.2378406927568 632.801102913973 685.5214587536213 0 0 0
189 1 1 0 631.0826038081227 643.0402334070432 640.9259255095534 0 0 0
986 1 1 0 680.3849212381431 686.0740856115563 645.4652250451921 0 0 0
191 1 1 0 636.9388588308432 636.5300593098256 673.7761502039131 0 0 0
1076 1 1 0 630.0437390802841 670.3508864782067 676.3812857360728 0 0 0
193 1 1 0 640.2782389741413 647.9217101453664 632.9506187401096 0 0 0
153 1 1 0 658.3399865017883 686.4934033181837 662.1822821811231 0 0 0
195 1 1 0 685.3544856609346 661.5797889552292 671.8390927865494 0 0 0
196 1 1 0 672.010099220324 635.2917749571403 653.2337617140691 0 0 0
4861 1 1 0 651.1470368846697 683.113091835237 686.2048202634066 0 0 0
198 1 1 0 679.1406914398494 683.8962218289456 649.29864315134 0 0 0
199 1 1 0 632.572087576513 664.809100526134 653.2621872765312 0 0 0
96 1 1 0 631.4390820449504 675.7811731707567 630.4896823021578 0 0 0
201 1 1 0 682.159881512221 682.4329707391153 634.9105501251869 0 0 0
1023 1 1 0 640.7554723828342 630.715599055677 682.1096504195186 0 0 0
203 1 1 0 679.0110732366308 677.0732062274278 647.9783232639406 0 0 0
204 1 1 0 631.7030108874781 678.8857612786384 683.7958016695829 0 0 0
205 1 1 0 642.7444097530415 674.2317627299793 631.0042354228416 0 0 0
1310 1 1 0 686.131011903895 677.4210451139344 679.1839296617355 0 0 0
207 1 1 0 683.1407362457248 657.1375540693635 668.8639824795022 0 0 0
208 1 1 0 632.9489380692658 633.8689256798147 667.2586613392263 0 0 0
209 1 1 0 682.7386569582496 683.5309194626572 634.2933867370406 0 0 0
210 1 1 0 674.0647727526074 633.0250374923261 679.7592347110851 0 0 0
211 1 1 0 630.7944900697065 637.5459176665986 632.8568643995604 0 0 0
212 1 1 0 683.6661999672973 684.5730035017575 632.1995606204785 0 0 0
213 1 1 0 657.4685292525241 683.1566154038746 666.0513844795274 0 0 0
214 1 1 0 681.3806756668979 682.5991804639209 639.2138986463953 0 0 0
215 1 1 0 684.3162245406645 685.3217016985866 644.3114899674306 0 0 0
4895 1 1 0 641.0909206180322 682.4619472740861 630.6550422553382 0 0 0
217 1 1 0 639.2043194548608 634.208990927658 684.3045838744008 0 0 0
218 1 1 0 666.4007262084799 654.1823224949324 632.2537295455865 0 0 0
219 1 1 0 640.8017974539652 671.3503874817513 636.798090216084 0 0 0
220 1 1 0 635.4819485413426 666.4677542588162 650.9140934798171 0 0 0
221 1 1 0 633.8656875197906 666.7892383362141 666.0582582631616 0 0 0
222 1 1 0 644.2453774488448 640.2271033362573 643.276603034753 0 0 0
9952 1 1 0 664.2216335222342 653.7046249433616 631.048780019784 0 0 1
224 1 1 0 660.232354077055 681.4334893259459 666.6805545530352 0 0 0
225 1 1 0 632.2777600205271 634.6559484501172 640.4559885352412 0 0 0
226 1 1 0 645.4019807965454 632.2704578102699 672.7120628328471 0 0 0
227 1 1 0 640.1371451956834 631.631226601089 681.2013885400296 0 0 0
228 1 1 0 641.3803495275713 632.5810545054469 683.5261461657431 0 0 0
229 1 1 0 630.5415707762055 642.9426628145217 632.6279373159635 0 0 0
230 1 1 0 684.8493207167861 664.3891334625778 670.1440301873613 0 0 0
4409 1 1 0 684.3406791023187 686.3205289137987 630.5992476485598 0 0 0
232 1 1 0 643.7903920837063 665.8077695301857 633.375392291544 0 0 0
233 1 1 0 630.3512764357728 669.0366743868667 663.1250127023611 0 0 0
234 1 1 0 665.8450604672046 651.9349090167814 631.1764568484676 0 0 0
235 1 1 0 680.9334659366405 671.3919338200151 649.5983359041264 0 0 0
236 1 1 0 685.363449769861 683.3617550681234 647.2701680931556 0 0 0
237 1 1 0 631.144945060101 632.344499653812 637.5725602394888 0 0 0
238 1 1 0 634.624331435443 667.4720687770383 665.0455324059278 0 0 0
239 1 1 0 658.8807200262213 683.0041771293018 662.4769110415813 0 0 0
240 1 1 0 639.930850749083 634.5096113611262 683.0911685587015 0 0 0
241 1 1 0 673.1256735320931 679.4586467006703 684.5071039630093 0 0 0
242 1 1 0 682.3101908681057 681.5173997478936 647.3404877551 0 0 0
3678 1 1 0 639.8549550583207 630.5823868280617 640.1178347342932 0 0 0
377 1 1 0 637.66654167977 630.638535896381 675.3926815504993 0 0 0
245 1 1 0 659.441056554612 683.5411362559661 672.5051273656793 0 0 0
246 1 1 0 635.7967382508037 637.5190698092296 683.467855590749 0 0 0
247 1 1 0 641.9679987429421 640.1688194223862 642.3676036302166 0 0 0
248 1 1 0 651.6194572787273 636.1306553581665 663.2251132210437 0 0 0
249 1 1 0 642.4098114356418 636.9693024693179 671.3555780491353 0 0 0
250 1 1 0 666.345764672328 665.6001103147223 631.7094991334457 0 0 0
4805 1 1 0 640.274034673071 630.394373269123 674.9789636108699 0 0 0
252 1 1 0 633.395502512178 666.3222234313423 668.6840009015574 0 0 0
253 1 1 0 649.8733235263114 636.7498240981082 665.0327793171103 0 0 0
254 1 1 0 632.4770041158831 666.7532820455048 654.6957493844831 0 0 0
255 1 1 0 669.7837165779451 672.3886767174057 632.8357395133684 0 0 0
256 1 1 0 639.224905304032 645.1968831982656 633.4886006575483 0 0 0
257 1 1 0 646.8316662737194 636.4437120468887 665.6339357115364 0 0 0
258 1 1 0 658.8136848179497 683.5402160001031 677.1818213635169 0 0 0
259 1 1 0 673.5885201455052 672.4873688133591 683.7646622533341 0 0 0
260 1 1 0 634.1233255150456 660.5431774179818 683.8461681850315 0 0 0
261 1 1 0 645.3435946761631 638.5807012276057 668.9523671977 0 0 0
262 1 1 0 631.5931739171544 668.2998687629911 663.3132744241294 0 0 0
263 1 1 0 630.8000511708137 635.2448199901654 633.4425925717471 0 0 0
264 1 1 0 632.2586515370325 642.8695250762545 638.5141400531949 0 0 0
20492 1 1 0 629.9406356702975 674.1759283174136 684.2028476477373 1 0 0
266 1 1 0 631.9732593875704 642.5129315768396 639.8886681011944 0 0 0
267 1 1 0 635.2014426830631 661.8672368318604 682.1454620916874 0 0 0
9208 1 1 0 667.7472046723586 677.4071590022759 630.0794396647701 0 0 1
269 1 1 0 682.7485025591654 651.831368813914 632.4542388745031 0 0 0
270 1 1 0 660.796147257128 681.4792306041066 667.9766619277649 0 0 0
271 1 1 0 684.4155884664104 657.485907713417 669.3868403632911 0 0 0
272 1 1 0 637.7807590384989 635.9720762845828 676.1660023893804 0 0 0
273 1 1 0 644.1527276249249 638.4470958662343 671.015847469142 0 0 0
274 1 1 0 682.3605613525709 685.7650054511814 677.1761153770613 0 0 0
275 1 1 0 638.308848622467 674.8016658643396 633.5547961569496 0 0 0
276 1 1 0 642.6215644366437 638.9136498809411 672.8545105768496 0 0 0
277 1 1 0 680.1948940085981 679.130383123247 648.5637638947932 0 0 0
278 1 1 0 653.7055957156617 631.6991454693333 654.0692552651491 0 0 0
279 1 1 0 641.4346226432136 638.425807849707 673.5638566521026 0 0 0
280 1 1 0 644.7405687122754 635.699309039546 668.7792205626109 0 0 0
281 1 1 0 631.3575031026401 681.7616269368951 631.195552152419 0 0 0
4913 1 1 0 629.968425754541 645.1537091046806 641.9455124750115 0 0 0
283 1 1 0 630.9871645342322 638.732052228866 633.6123607507005 0 0 0
284 1 1 0 674.5763237929256 631.4719051591376 652.1681440450482 0 0 0
285 1 1 0 670.856856657083 633.1966630198143 683.6606534827506 0 0 0
4576 1 1 0 662.8948805433886 661.3406462350782 631.3810261954097 0 0 0
287 1 1 0 681.5832932219763 684.8650174315572 678.0335712594832 0 0 0
288 1 1 0 632.9823218781726 666.3307088186489 673.9800766802084 0 0 0
289 1 1 0 678.8808778574706 678.4796052751242 648.4514891656252 0 0 0
290 1 1 0 647.1198176853253 662.6190611805681 634.6221865609886 0 0 0
291 1 1 0 640.252487470841 645.6920612184523 644.868687437628 0 0 0
292 1 1 0 640.2460259590387 648.051737131544 644.5035840039047 0 0 0
293 1 1 0 639.5629691536811 646.829998197663 644.633681720899 0 0 0
294 1 1 0 638.2175664553454 646.8876699863155 643.9264722255123 0 0 0
295 1 1 0 639.2456361755642 646.6244049431435 641.5367769314267 0 0 0
296 1 1 0 640.4614368482585 647.0426173738772 640.9234454022256 0 0 0
297 1 1 0 641.9285847938819 646.9561146092785 640.5518677966177 0 0 0
298 1 1 0 642.2276181556862 646.1247325190279 638.0008631742136 0 0 0
299 1 1 0 637.4492770857049 635.7465355706626 683.7843953298689 0 0 0
300 1 1 0 641.528437865237 648.252633581203 644.7914802195562 0 0 0
301 1 1 0 641.6643467561302 645.8260594600986 645.1884920537611 0 0 0
302 1 1 0 638.6559620258816 647.3804153017256 642.5703890253336 0 0 0
303 1 1 0 642.7637282399544 647.796036755462 641.5673327921136 0 0 0
304 1 1 0 643.3030511208442 647.8805851666482 642.8826587354275 0 0 0
305 1 1 0 644.3263202458012 645.9533812881787 644.3648494625147 0 0 0
306 1 1 0 643.4059877579815 646.9165977211353 643.9550669580943 0 0 0
307 1 1 0 643.8908200621667 644.743223810098 644.953393643311 0 0 0
308 1 1 0 642.408596680882 644.5358386113446 644.9793642624123 0 0 0
309 1 1 0 642.2899734142262 647.0428683616941 644.8419992039513 0 0 0
310 1 1 0 639.3350946394808 634.3182976942542 678.0171240085747 0 0 0
311 1 1 0 659.5058768149245 680.4291971059564 675.4296503465405 0 0 0
312 1 1 0 684.9977232700861 657.7432141792383 670.6317104254565 0 0 0
313 1 1 0 646.0749757728992 635.8018291746511 666.5668674386538 0 0 0
314 1 1 0 636.2000400826461 644.8887530783022 632.3904317351951 0 0 0
315 1 1 0 680.3620918694708 681.7078184501136 636.6943231429373 0 0 0
316 1 1 0 631.2791310999464 633.7035960514296 640.8208009947389 0 0 0
317 1 1 0 646.6910057834666 636.6049466689321 671.1666215328368 0 0 0
318 1 1 0 647.7540744209596 631.2764231332235 662.3348255269846 0 0 0
319 1 1 0 673.82914156466 630.9444031575864 678.4648527425137 0 0 0
320 1 1 0 637.6264857593634 632.8750715702596 670.6489606315513 0 0 0
321 1 1 0 635.8965530005296 634.547683560417 670.068437705608 0 0 0
4540 1 1 0 651.0560858413951 686.5966176765976 655.7423113076842 0 0 0
323 1 1 0 645.50391819259 637.9487929339074 667.691778182819 0 0 0
324 1 1 0 642.1599093972097 632.3156961379859 672.2480816251369 0 0 0
325 1 1 0 632.39160967206 631.9259607637416 637.0259854455788 0 0 0
4833 1 1 0 679.0154243369857 630.4333500206186 681.99890480501 0 0 0
327 1 1 0 647.3785541866224 632.1610051256098 663.376390391857 0 0 0
328 1 1 0 645.5888619036677 634.5471223114835 666.344415252998 0 0 0
329 1 1 0 651.168504175136 634.180318125121 661.2118913504852 0 0 0
330 1 1 0 648.6870469333704 633.9796795311895 662.6210678821828 0 0 0
331 1 1 0 648.5180764418358 631.8317722381354 661.3244150889418 0 0 0
332 1 1 0 648.5872077239401 637.7570168195108 663.6404681752566 0 0 0
333 1 1 0 644.3682865904075 655.5763563844473 635.1164348005806 0 0 0
334 1 1 0 642.1450066009694 676.4491730529555 631.2163550948995 0 0 0
335 1 1 0 632.414617534738 668.3560914904848 664.4875675071319 0 0 0
336 1 1 0 631.4032883049606 640.2106755947596 640.4407543968154 0 0 0
337 1 1 0 633.8888461219786 667.141069447959 654.1357915924947 0 0 0
338 1 1 0 634.7485969520347 669.2630457329017 650.5693901380344 0 0 0
339 1 1 0 684.4465575690618 666.8807396918098 671.2727915656633 0 0 0
340 1 1 0 630.5051689345408 667.6505367218625 681.4073197364031 0 0 0
341 1 1 0 636.9326461692062 633.2304769797347 668.3481379391764 0 0 0
342 1 1 0 659.9091359839522 678.897688071538 673.2859158653415 0 0 0
343 1 1 0 636.2859711765129 637.569575851723 682.1021438928327 0 0 0
344 1 1 0 655.0147552814456 684.6422851902065 678.039160591534 0 0 0
345 1 1 0 649.1283008136968 661.7860959503963 633.4991213574889 0 0 0
346 1 1 0 637.6550285024886 637.1511675180855 681.6713473831613 0 0 0
347 1 1 0 679.301459843693 649.8139620371312 630.813922626911 0 0 0
348 1 1 0 656.9827630070976 679.6127629606626 673.714707767798 0 0 0
349 1 1 0 659.485161426311 682.9748450697722 674.8593181224239 0 0 0
350 1 1 0 639.3450106217718 635.0979181556306 680.7362094206209 0 0 0
351 1 1 0 657.1642997951454 679.458020573802 672.3503154350351 0 0 0
352 1 1 0 646.0307780042714 631.7961382814269 671.5428884090566 0 0 0
353 1 1 0 655.4070812608337 683.9300330693287 681.593014262684 0 0 0
354 1 1 0 635.5160547691063 668.0367407712855 657.3167439988086 0 0 0
355 1 1 0 636.683416689519 643.8944139012701 683.053696883884 0 0 0
22522 1 1 0 685.8967201766028 652.8630134386988 630.6188135138177 0 0 0
357 1 1 0 683.9338235980999 658.9962771416898 667.250964877991 0 0 0
358 1 1 0 658.816311018994 683.4709648256355 673.7928545624843 0 0 0
359 1 1 0 670.5962431329468 682.6960680144799 684.5251324246464 0 0 0
360 1 1 0 657.8903183422743 678.3018272982407 671.9458704013543 0 0 0
361 1 1 0 685.5042867746124 684.6330479094166 678.1398628952327 0 0 0
362 1 1 0 658.1873176174331 678.1463687778358 670.5607465140035 0 0 0
363 1 1 0 640.966467812452 632.717964605394 684.8802494643774 0 0 0
364 1 1 0 660.2020107314007 681.2923771457993 673.0232359926673 0 0 0
365 1 1 0 640.4510338100465 632.9920980040521 681.3115145004839 0 0 0
366 1 1 0 656.955960942232 681.890436732154 671.9559633236822 0 0 0
367 1 1 0 660.1707098364138 682.3823369907923 672.1299461779375 0 0 0
368 1 1 0 638.1491511287459 636.0609517888581 682.5713990351478 0 0 0
369 1 1 0 638.4256937860827 631.7022361555436 677.8531942792159 0 0 0
370 1 1 0 649.0620086335393 633.0898252602025 661.6245807742051 0 0 0
371 1 1 0 669.7209073476025 667.4473226935744 679.8168843262092 0 0 0
372 1 1 0 635.086199168129 642.2853009341954 631.9558557217813 0 0 0
14175 1 1 0 686.0514936884391 630.8124978723672 653.2709179142829 0 1 0
374 1 1 0 673.1270730280179 631.4413518398427 685.2537069021278 0 0 0
375 1 1 0 673.3895804560885 631.9700328574182 684.0203045318701 0 0 0
376 1 1 0 632.5861055492082 667.110715900706 682.4610909651093 0 0 0
3761 1 1 0 641.8002982892045 681.2305417860052 630.5809493569047 0 0 0
3751 1 1 0 630.1718726281018 639.9459482960383 643.667622549639 0 0 0
22307 1 1 0 631.5326665952978 672.0098839722139 653.27954365404 1 0 0
380 1 1 0 682.4610924391452 679.0373782159136 649.0870346720436 0 0 0
381 1 1 0 657.334379388411 680.5917331333659 671.5137411920609 0 0 0
382 1 1 0 638.074813283731 662.7077324666474 685.16161971113 0 0 0
383 1 1 0 671.133676743562 652.5329194557387 631.1621749578934 0 0 0
384 1 1 0 639.3605774863186 631.2277681023988 680.1807922562436 0 0 0
385 1 1 0 682.7310562469562 681.5320888325874 686.0735032469975 0 0 0
386 1 1 0 630.8042529398973 662.6774630190151 681.1510175247604 0 0 0
387 1 1 0 634.565634381959 639.3722852339116 632.6112567979208 0 0 0
388 1 1 0 674.7348032517161 680.0102739921399 680.7436467449191 0 0 0
389 1 1 0 646.1268303085753 632.3560119943802 665.3869642629196 0 0 0
390 1 1 0 636.0284916171943 645.8123512259511 644.2535754360445 0 0 0
391 1 1 0 681.1424899223746 631.9371334791609 648.6946387864729 0 0 0
392 1 1 0 671.0647592212845 675.3499897093441 682.5117310571804 0 0 0
393 1 1 0 632.4740746550134 641.1551423947352 640.3047546002177 0 0 0
394 1 1 0 642.8104391783629 636.2366280791687 670.1555801352367 0 0 0
395 1 1 0 636.170501103688 667.4147877980863 650.0773634364277 0 0 0
107 1 1 0 630.5677598226042 654.5776153042091 655.7542200108472 0 0 0
397 1 1 0 634.2267454765912 670.0220809276846 646.7837244235321 0 0 0
398 1 1 0 660.7794854562275 682.7122281670039 683.5757710401856 0 0 0
399 1 1 0 660.9319704937287 679.8809225141567 671.2615619951038 0 0 0
400 1 1 0 639.1870197358708 635.3113945322024 682.0985520254945 0 0 0
401 1 1 0 676.1770730574606 631.7292528055317 679.5561508779799 0 0 0
402 1 1 0 677.2935204735346 683.4145858261468 644.0424600109899 0 0 0
9388 1 1 0 640.9354573202291 684.8940205807888 630.2862768519511 0 0 1
404 1 1 0 673.1183158342916 633.4486009296778 683.8018198340967 0 0 0
405 1 1 0 647.69360157767 659.4237409601863 631.0794334785998 0 0 0
406 1 1 0 682.8511863906855 682.8980317533254 639.2487028205948 0 0 0
407 1 1 0 672.0219742704493 653.6322986898282 631.4174967290593 0 0 0
408 1 1 0 671.7357317975807 654.6520655278795 632.4723832939532 0 0 0
409 1 1 0 673.3279365355618 653.2001763524352 630.9875462807082 0 0 0
410 1 1 0 642.1800423831788 647.0874890324933 639.0912750761605 0 0 0
411 1 1 0 642.0827708744288 646.4055038029477 636.6275226184914 0 0 0
412 1 1 0 641.6781061090447 646.2925719673029 635.1387713946561 0 0 0
413 1 1 0 641.1757633409425 654.5176159246575 643.4102106096831 0 0 0
414 1 1 0 641.0713795121536 653.105895531301 643.3339798266676 0 0 0
415 1 1 0 641.4185180196765 650.7275357491114 644.3090731878154 0 0 0
416 1 1 0 640.2102894869554 650.5797118046505 643.4056412178118 0 0 0
417 1 1 0 639.4586473005921 649.212534677027 643.7818401416944 0 0 0
418 1 1 0 636.1836021434833 636.5156670556362 672.4191723787748 0 0 0
419 1 1 0 642.0054360066003 656.4199019106923 641.8783962095653 0 0 0
420 1 1 0 641.6163410556724 657.2849914657642 640.8134327440431 0 0 0
421 1 1 0 641.1184001732232 655.3333883366364 642.1990269758705 0 0 0
422 1 1 0 640.6269664771951 654.7239394096209 640.999481230182 0 0 0
423 1 1 0 640.3360213550384 652.6386177512361 642.2847002769629 0 0 0
424 1 1 0 640.1553719560118 653.4051930367556 641.094765540513 0 0 0
425 1 1 0 639.868895249459 651.336710795543 642.3441058081572 0 0 0
426 1 1 0 639.5280239407479 650.6955193425529 641.2005354177714 0 0 0
427 1 1 0 638.9457212186663 648.7341797832358 642.4961009341544 0 0 0
428 1 1 0 639.4407321210327 649.3303383730345 641.3801247131804 0 0 0