LAMMPS data file via write_data, version 2 Aug 2023, timestep = 50000, units = metal

10348 atoms
1 atom types

632.646656577668 731.5333434223321 xlo xhi
633.3599053727337 731.5290946272639 ylo yhi
633.0659461712056 731.823053828792 zlo zhi

Masses

1 12.0107

Atoms # full

1222 1 1 0 644.264096798618 678.7900303012201 679.8123249151075 0 0 0
2 1 1 0 673.094894847977 634.9794780384264 670.4368454608583 0 0 0
3083 1 1 0 648.9230160379586 681.2178591924232 635.082767006103 0 0 0
5545 1 1 0 633.1485538043701 664.4707709905773 651.6073320934628 1 0 0
863 1 1 0 645.5002624131309 680.6210443582179 680.6088826057369 0 0 0
6 1 1 0 681.465657979658 635.3931319615588 672.0329298961801 0 0 0
7 1 1 0 645.9738681699826 635.1311478987153 671.769911303069 0 0 0
3793 1 1 0 666.5938376041964 678.4919509741355 644.6002911649841 0 0 0
244 1 1 0 632.8557055809121 677.6304479774168 679.6039967903238 0 0 0
10 1 1 0 664.3601750209644 675.559727874431 644.3567788466162 0 0 0
330 1 1 0 681.9453919824637 645.3842874181855 639.8552814671717 0 0 0
12 1 1 0 663.9060074968331 647.5652038051569 635.1950552216751 0 0 0
3854 1 1 0 674.3567028404971 675.3814825900821 651.4782986996911 0 0 0
14 1 1 0 646.3324059682493 636.9066559507048 670.2879503038002 0 0 0
3298 1 1 0 668.5357673906515 677.0572979810079 645.7033416702473 0 0 0
16 1 1 0 638.7968377604261 678.7997903216655 678.767917534294 0 0 0
17 1 1 0 646.3095510001514 637.1104442997263 667.8898265171262 0 0 0
1474 1 1 0 658.6944444097103 679.3462333714897 636.238857248378 0 0 0
3360 1 1 0 678.1033181479178 675.6939363821947 661.1438777038856 0 0 0
385 1 1 0 643.9032716175817 633.9918018194167 662.4374651980548 0 0 0
255 1 1 0 656.8729236074604 673.1281454439855 682.0281417355282 0 0 0
22 1 1 0 636.804206899567 637.5526926934838 652.5049943361622 0 0 0
15 1 1 0 681.439717942145 672.9852142809982 653.4489207855929 0 0 0
24 1 1 0 647.0832069499787 637.0325813065416 669.0952960701346 0 0 0
1436 1 1 0 649.5355347479913 633.4775811151637 656.1933421571002 0 0 0
26 1 1 0 680.3718839163656 635.7213929846387 671.0443872553747 0 0 0
30 1 1 0 640.6368795912556 635.4161362742781 672.7335357708142 0 0 0
28 1 1 0 641.920487232963 635.3870927034117 665.8626209629026 0 0 0
29 1 1 0 636.2211219360245 668.012578657282 633.8254720045089 0 0 0
4107 1 1 0 634.4625053308404 633.3627696172699 679.7443182505847 0 1 0
25 1 1 0 633.5400223939503 664.5159351316512 637.3506677000064 0 0 0
311 1 1 0 655.1526230035356 670.3308127116629 682.1449716025912 0 0 0
112 1 1 0 634.4599947288835 663.9973394670311 645.6751079663267 0 0 0
119 1 1 0 634.4799152705087 662.1176906460599 647.2326111438672 0 0 0
1238 1 1 0 640.2011617283838 676.4384110643927 679.0982920756688 0 0 0
3006 1 1 0 680.8003490795916 679.7162330902388 656.6109275355024 0 0 0
37 1 1 0 638.5260608034263 667.7849346765662 634.0115355343142 0 0 0
3310 1 1 0 672.564329298492 678.0825708550599 651.2020206438281 0 0 0
332 1 1 0 643.9917797400747 634.6125306738905 672.829834697487 0 0 0
1380 1 1 0 642.8902090528458 634.1349969747008 654.2318436792164 0 0 0
383 1 1 0 633.5995419562713 675.7241032542512 675.6283509284218 0 0 0
1243 1 1 0 680.6831648537365 634.0232038697277 678.8530229148919 0 0 0
43 1 1 0 638.4443593022316 667.1348863283558 635.3022471836109 0 0 0
44 1 1 0 671.8392174598762 634.3498956674617 672.6688848433494 0 0 0
45 1 1 0 674.474638344954 635.1631668118578 670.7934006223312 0 0 0
46 1 1 0 654.5410843707964 665.4600560238903 672.8939834465269 0 0 0
47 1 1 0 655.9238753030463 674.5471836962998 675.1996287332831 0 0 0
48 1 1 0 653.5975325384543 673.1055072650681 674.4082929624068 0 0 0
682 1 1 0 642.3083565673436 634.2972386043834 668.6121650447853 0 0 0
50 1 1 0 649.4458561177602 671.6514735529623 679.9358176568695 0 0 0
3615 1 1 0 654.8985904859865 681.1952424154041 635.4190777079783 0 0 0
2829 1 1 0 658.3342573792656 678.9929563801466 639.8969801778579 0 0 0
53 1 1 0 667.7588368282843 651.7987748689417 635.1997120424982 0 0 0
378 1 1 0 633.3740212990996 662.0863372350068 637.4859725349443 0 0 0
3012 1 1 0 680.556281396465 676.2390722993098 651.0834209526339 0 0 0
1422 1 1 0 638.5192486641625 634.5696680026624 658.2817412932366 0 0 0
3672 1 1 0 662.85603230133 679.2531440612253 638.6774675724854 0 0 0
5544 1 1 0 633.1616965391105 661.986033918673 650.8128449865466 1 0 0
754 1 1 0 646.3720407909883 674.5625116742691 680.8457456741377 0 0 0
2837 1 1 0 661.8145722004832 682.218353264638 641.1654778830041 0 0 0
2964 1 1 0 669.5476273255954 679.5771389768337 649.8275416864215 0 0 0
62 1 1 0 669.316051757683 652.0111900952461 634.9716407710744 0 0 0
395 1 1 0 633.2528816132238 660.4376828918745 645.9058033716246 0 0 0
1316 1 1 0 650.2039459365326 679.5563486536464 636.1703093394088 0 0 0
1328 1 1 0 681.4459965180921 637.8674375625333 676.6821869086649 0 0 0
1226 1 1 0 644.1680330124833 636.8864891012744 669.1731915774299 0 0 0
297 1 1 0 648.4766039280627 678.1089317239887 681.5111824642534 0 0 0
68 1 1 0 680.1816628292559 643.1116353302798 634.2012239579178 0 0 0
84 1 1 0 675.6226487940522 645.6448586330838 633.9986148122773 0 0 0
70 1 1 0 680.4277256145135 644.2062836026209 636.7189291896033 0 0 0
912 1 1 0 650.9186589556679 633.5652701600269 656.310175793717 0 0 0
72 1 1 0 680.5709292139576 644.8204205695206 637.9415394287872 0 0 0
238 1 1 0 637.6997909288365 677.7279932944512 680.7530187855036 0 0 0
3355 1 1 0 677.146297397045 676.8057992592468 658.2977541512203 0 0 0
75 1 1 0 679.0743070539406 643.8416194032376 634.6825935211539 0 0 0
5599 1 1 0 632.9195019191606 638.1350571300202 653.5965757193737 1 0 0
77 1 1 0 679.1554743011776 644.1836808537681 636.0807418307828 0 0 0
78 1 1 0 678.0589964286426 644.8867738149775 636.6561569452992 0 0 0
79 1 1 0 679.4306822792083 645.2369536638903 638.618331707036 0 0 0
80 1 1 0 678.1674561903181 645.1786210129544 637.9978323551974 0 0 0
81 1 1 0 679.5582404396279 645.8196691727184 639.891190626265 0 0 0
82 1 1 0 678.4661713195087 646.4243313146908 640.4891697931745 0 0 0
83 1 1 0 676.7849061516521 645.03112306657 634.5542020086037 0 0 0
3876 1 1 0 633.1019009628343 634.8647055606185 681.3198206163863 0 1 0
85 1 1 0 676.8951032245251 645.3182650500413 635.9266570075538 0 0 0
86 1 1 0 675.9384270286225 646.0256410063758 636.6353780346141 0 0 0
87 1 1 0 677.0525637382547 645.6430841807673 638.7125810844485 0 0 0
88 1 1 0 675.8749058564754 646.0115600180252 638.0052720751141 0 0 0
89 1 1 0 677.180897830793 646.1783213884104 639.9858261137325 0 0 0
90 1 1 0 676.1262785102032 646.9323577231687 640.535634990327 0 0 0
91 1 1 0 674.6846318533953 646.5829473870103 634.603776686148 0 0 0
92 1 1 0 673.4644890833597 647.1627851070581 634.1718234539675 0 0 0
93 1 1 0 675.0704584335508 646.8967955085947 635.9752192634589 0 0 0
94 1 1 0 674.6218453409311 648.0426123736052 636.6418168180888 0 0 0
95 1 1 0 674.9065974964661 646.8478936980993 638.6138676581139 0 0 0
96 1 1 0 674.8843664831099 648.1431211335753 638.0199688543103 0 0 0
97 1 1 0 674.8367027703875 646.7541310068906 640.0276867820834 0 0 0
98 1 1 0 673.7852383548568 647.0986037911338 640.9035622019832 0 0 0
33 1 1 0 638.6910080950746 634.310713273719 673.6650609344784 0 0 0
5092 1 1 0 633.5237381423711 633.6527703878381 678.7328474173402 0 1 0
3245 1 1 0 679.4121990765622 676.9081554826021 656.456585390541 0 0 0
884 1 1 0 678.1287210382197 634.4658322263894 670.4527518662982 0 0 0
3216 1 1 0 639.5954766013274 682.3273530775107 680.9215329013514 0 0 0
3752 1 1 0 658.4912957163436 681.8299962684986 639.018206994586 0 0 0
785 1 1 0 676.7522146467692 633.4436230276551 680.6978183369426 0 0 0
1259 1 1 0 641.5640021594476 634.0754032210439 653.6313740982873 0 0 0
3603 1 1 0 650.5558073804101 682.0769116906155 636.6234746866924 0 0 0
1297 1 1 0 649.9897214151154 677.3780815847921 635.3450759826019 0 0 0
903 1 1 0 643.1243931883727 681.0175839558927 680.2715106766842 0 0 0
110 1 1 0 644.8102083840913 635.6165303082503 672.3347456780691 0 0 0
891 1 1 0 681.7776597093205 638.682995476485 674.3295864157524 0 0 0
6171 1 1 0 634.9985737575839 633.759072406974 654.8435076690557 1 0 0
1374 1 1 0 634.6793886287954 660.5890479710494 638.8324645338303 0 0 0
1405 1 1 0 634.3056595200023 662.0123322016835 636.340776850573 0 0 0
115 1 1 0 647.8603617935007 679.6423177411634 636.6611421945938 0 0 0
120 1 1 0 678.4577724489762 633.3877108321001 679.0054546469465 0 0 0
117 1 1 0 635.2370291078728 663.776003419392 643.4027006129149 0 0 0
1357 1 1 0 633.686123451642 677.7961805301646 678.5395637408876 0 0 0
2978 1 1 0 677.7943187247159 675.2366523389957 656.1768813298792 0 0 0
325 1 1 0 653.7156728458539 675.7438896716819 634.938889107146 0 0 0
121 1 1 0 650.1427726547722 675.9915177023257 636.038429613074 0 0 0
327 1 1 0 654.2568142282981 676.6371845763107 633.9677332533132 0 0 0
2928 1 1 0 663.9267548724765 681.797798845692 644.8585086860908 0 0 0
124 1 1 0 678.6290869228343 647.457596871599 641.4218333194598 0 0 0
2955 1 1 0 670.0765109855557 681.5263121198205 645.5821337248507 0 0 0
1329 1 1 0 682.028808652404 634.8390769444361 674.6924682364232 0 0 0
127 1 1 0 646.0895737606108 635.6471018090778 658.406263405727 0 0 0
128 1 1 0 644.8529229578032 635.8204689636409 665.6404865767124 0 0 0
3308 1 1 0 671.218873358956 678.2906298098269 651.4717349000913 0 0 0
130 1 1 0 677.6712250962919 648.4092879479906 641.6002384578696 0 0 0
131 1 1 0 676.3769112321029 648.3407634182621 640.8074132575913 0 0 0
132 1 1 0 677.8385618837218 649.6100153991614 642.3186762057771 0 0 0
133 1 1 0 676.8365182819178 650.5363281872663 642.3576282393504 0 0 0
99 1 1 0 633.6624509040364 663.8493754071033 641.6801089601096 0 0 0
135 1 1 0 666.2979174985646 649.9991482975516 635.799584050777 0 0 0
957 1 1 0 655.8255796454321 633.4206234113759 664.2969282934042 0 0 0
137 1 1 0 675.1285459305027 648.9848435241619 641.6137702252893 0 0 0
138 1 1 0 673.7958435740217 648.441245238183 641.3941336313995 0 0 0
139 1 1 0 675.5026530259222 650.2151713616855 642.1433583113287 0 0 0
140 1 1 0 674.6752702975787 651.3190914103028 642.0485417936902 0 0 0
532 1 1 0 640.0627463464282 634.7395803287827 673.8428883196955 0 0 0
142 1 1 0 674.9575539864558 652.4069589310158 642.8943144827707 0 0 0
1185 1 1 0 649.3203455287271 635.0902043341762 670.9315154984725 0 0 0
409 1 1 0 634.4125251193335 661.2948744774233 646.0408313271657 0 0 0
145 1 1 0 655.5152381808985 671.433582723178 675.1716613180247 0 0 0
146 1 1 0 652.0284945801768 678.0907883445308 636.4312863039393 0 0 0
147 1 1 0 663.3503023555967 651.278283473093 637.6393739350726 0 0 0
148 1 1 0 664.3962813927452 653.1672982912678 636.6568034135637 0 0 0
149 1 1 0 662.3930188100836 650.6377891607652 636.8632620741718 0 0 0
150 1 1 0 662.0140037530607 651.147995898962 635.5269921532287 0 0 0
151 1 1 0 660.6860266879584 648.9555039881546 635.4320658180043 0 0 0
152 1 1 0 661.0222478762446 650.290931162801 634.889926595553 0 0 0
153 1 1 0 659.9029096954538 647.7276472773041 634.669905401418 0 0 0
1445 1 1 0 649.3630209348435 633.949080804231 661.6055785102471 0 0 0
155 1 1 0 663.9921441747318 652.9446979854038 635.165653514905 0 0 0
3650 1 1 0 669.7740125537135 676.6130683292081 648.0735635289603 0 0 0
157 1 1 0 662.987843495543 651.8998399033616 634.7457065399103 0 0 0
158 1 1 0 639.8461305042669 677.9027485865648 679.0902303193839 0 0 0
462 1 1 0 657.8749534106904 673.5170784017972 681.0680628791985 0 0 0
1290 1 1 0 637.4859058477863 678.3284135366712 678.2517250984879 0 0 0
2858 1 1 0 678.396001521203 679.1342335467223 656.5431156484733 0 0 0
511 1 1 0 633.0720337040029 673.5625755683352 676.7859426153784 0 0 0
163 1 1 0 646.1760786401725 635.7503951553405 666.073154460078 0 0 0
3296 1 1 0 658.0256198628031 678.4080841867285 643.4894192214903 0 0 0
867 1 1 0 675.0303391991848 634.0678272710787 675.6813178758302 0 0 0
166 1 1 0 679.9200602301521 637.0718886397933 671.0571235224738 0 0 0
167 1 1 0 636.9748884098874 665.3458174616659 636.2916820858383 0 0 0
688 1 1 0 641.4231333821186 675.7077438875185 681.025386631531 0 0 0
169 1 1 0 674.8803258765356 634.3327799831244 672.022172898498 0 0 0
3324 1 1 0 673.4517659093224 681.0142055269637 654.4622512768999 0 0 0
2818 1 1 0 650.5972342367847 680.547934345896 637.3303246638601 0 0 0
172 1 1 0 646.0419341622 636.6027447292494 661.289680929 0 0 0
1356 1 1 0 640.7074656114072 635.2923976148971 654.3473454313555 0 0 0
1130 1 1 0 673.394679186577 634.1430660834276 669.1367707209051 0 0 0
143 1 1 0 646.1059971768778 675.0962984302035 633.2490290047015 0 0 0
227 1 1 0 633.0258551164618 662.4466933706262 641.7778698645286 0 0 0
177 1 1 0 636.0793030468946 661.6219814925596 642.6951608691489 0 0 0
1432 1 1 0 680.5493110107312 673.9182597765705 651.4763474173631 0 0 0
439 1 1 0 653.1695968595245 672.3746862754415 682.2992351135438 0 0 0
2929 1 1 0 664.4665032439017 680.6912019584493 646.8878694413354 0 0 0
892 1 1 0 675.7862036775726 634.1945653375002 668.9643907496243 0 0 0
660 1 1 0 644.5846597613211 677.5806791002911 682.228897098506 0 0 0
183 1 1 0 662.044231620042 676.9714196417129 639.9941361433829 0 0 0
3761 1 1 0 676.3986317410967 677.1395123177175 645.9821565562634 0 0 0
185 1 1 0 634.8977084623621 661.0971944193108 643.5832932288853 0 0 0
1253 1 1 0 679.1895014185118 649.9552857924621 642.5167002472361 0 0 0
187 1 1 0 649.1832030740487 636.7090887563855 667.5606751026414 0 0 0
1428 1 1 0 640.1738394225179 634.968615173023 671.4885285523281 0 0 0
3315 1 1 0 670.9483955137811 679.3059266978514 652.3791249115193 0 0 0
3702 1 1 0 661.3568747507356 681.2145596763721 638.9423485552597 0 0 0
3169 1 1 0 659.4953497242011 680.2956523981966 643.623734124215 0 0 0
6224 1 1 0 634.9106700479987 635.4788306989451 650.437721833262 1 0 0
3767 1 1 0 669.8768278094431 678.7111421516779 643.9196733912753 0 0 0
194 1 1 0 652.4504316634249 670.7478256891683 676.0382684622435 0 0 0
5402 1 1 0 633.7669707617073 663.9089899722135 649.3722232294299 1 0 0
1471 1 1 0 675.0898502783499 675.3857492342964 650.3080453738045 0 0 0
197 1 1 0 665.6435561978859 676.7764618654129 642.3636639963044 0 0 0
198 1 1 0 649.6877526223 635.8127701488315 669.7405429102317 0 0 0
199 1 1 0 658.1173372843186 676.8271968057895 638.7777860815236 0 0 0
200 1 1 0 651.625870162383 675.6985522435083 636.1180651454856 0 0 0
540 1 1 0 638.8200121759039 670.6174742412339 633.1862863876285 0 0 0
202 1 1 0 667.6795365101859 654.7194099146996 634.7306109720391 0 0 0
203 1 1 0 666.8524805132067 652.7548997094437 635.7412346015215 0 0 0
1345 1 1 0 650.8285202456175 678.3834861954684 635.862295907267 0 0 0
205 1 1 0 669.0871849923082 654.5715125745389 634.7912023324138 0 0 0
206 1 1 0 651.6951178029827 671.5763778923197 676.9587175080998 0 0 0
207 1 1 0 659.3022584164274 675.3003653705813 641.8425380893867 0 0 0
208 1 1 0 658.5064043241123 675.3650933023412 640.6456375735955 0 0 0
1444 1 1 0 655.8913719648756 677.602848924828 641.7906337479083 0 0 0
1073 1 1 0 641.0216630150752 635.2184899408788 670.4096791914892 0 0 0
1207 1 1 0 669.3299537619912 676.4980940139048 644.496720264478 0 0 0
212 1 1 0 634.5856567270607 663.8673670634821 640.5111398274859 0 0 0
1291 1 1 0 635.6570254434087 661.9634096114697 633.6922256489282 0 0 0
2707 1 1 0 680.0888580456768 674.393852176043 660.4614167139289 0 0 0
1490 1 1 0 674.985202318887 675.2841792047357 652.6919175195059 0 0 0
3522 1 1 0 654.1465613515902 679.5762899534468 640.7188886672212 0 0 0
217 1 1 0 651.7708816617487 671.1833370104223 680.5021597021537 0 0 0
952 1 1 0 655.0189480667351 634.2915552799709 666.2698084065057 0 0 0
3309 1 1 0 673.5632080473448 678.7139251818995 650.1545067616295 0 0 0
220 1 1 0 655.2331995869226 671.4797895575297 679.3777358552098 0 0 0
5594 1 1 0 635.48008042016 634.5009942950846 655.9744312926512 1 0 0
2697 1 1 0 681.7413506948162 673.4194554109886 658.9497683179628 0 0 0
223 1 1 0 637.1585823873806 666.5169071773827 635.5746776850972 0 0 0
224 1 1 0 657.1628857990469 675.7056736597762 640.9351934112373 0 0 0
225 1 1 0 655.910934274639 675.3370972378224 640.3524536986324 0 0 0
226 1 1 0 657.0318138098447 676.7762991817153 641.9541034510339 0 0 0
1397 1 1 0 666.1445722496757 647.0464853630197 634.258333846222 0 0 0
403 1 1 0 638.7562155961706 672.016337569523 633.1989380091966 0 0 0
3037 1 1 0 663.5675413013656 681.0958037671826 639.8291999014949 0 0 0
230 1 1 0 666.4236577894975 675.848113034919 643.1044446419057 0 0 0
231 1 1 0 657.3177190743958 673.1969384817057 678.0790114504337 0 0 0
232 1 1 0 654.8261189516801 676.1956162045597 640.1067880405321 0 0 0
233 1 1 0 653.875884985324 676.2056452156032 639.0576717512637 0 0 0
234 1 1 0 654.7172704911277 677.2403984443251 641.0342529153284 0 0 0
1457 1 1 0 675.8385293339961 675.6035776845863 648.0428121800868 0 0 0
2982 1 1 0 676.4569890494032 675.6738870022031 654.6607708522082 0 0 0
1423 1 1 0 635.936612929184 680.1940104349289 682.0767811706322 0 0 0
176 1 1 0 633.206441810246 659.6454294795877 642.2562080438067 0 0 0
239 1 1 0 643.7478228079584 635.0154103864251 663.321485279678 0 0 0
240 1 1 0 652.5745924983617 676.6943590159963 639.4145834110118 0 0 0
241 1 1 0 651.6499295496511 676.6399534406987 638.3929255924318 0 0 0
242 1 1 0 652.4811259556415 677.8445106340333 640.2604187037133 0 0 0
2888 1 1 0 678.8210853987724 675.5590331620291 652.6266398824907 0 0 0
2850 1 1 0 681.4349260068136 674.3619539378333 659.9572645894623 0 0 0
245 1 1 0 643.8099021557902 635.2250782133808 657.8954220277067 0 0 0
3318 1 1 0 672.8607422031646 678.4273817245202 653.750480427042 0 0 0
247 1 1 0 658.9943529906942 646.7018958337105 634.2024096829336 0 0 0
248 1 1 0 650.3723593589964 677.1464041379605 638.4312557322447 0 0 0
249 1 1 0 649.490616318507 676.6725745069976 637.4486010078531 0 0 0
250 1 1 0 650.388645972011 678.4970324587831 638.9700715719009 0 0 0
1399 1 1 0 661.4533436865287 663.8196383583204 681.7962312071172 0 0 0
666 1 1 0 633.609217900628 675.1809881861734 679.7357664479033 0 0 0
252 1 1 0 681.9074190151271 639.9251553758595 673.7513508549264 0 0 0
3777 1 1 0 655.8318224721726 679.6197527363922 638.8618301478444 0 0 0
2897 1 1 0 681.9358745181521 677.7273725436761 649.6460114277006 0 0 0
256 1 1 0 648.3331448480633 677.4499383266403 637.3364585409519 0 0 0
257 1 1 0 647.2664997449207 677.1718614069863 636.419292161481 0 0 0
258 1 1 0 648.4441322667627 678.8583455513506 637.6617687127608 0 0 0
949 1 1 0 653.651244084725 634.181730634477 665.3877368602564 0 0 0
260 1 1 0 654.4413648391651 677.6608830654393 637.5372438855475 0 0 0
2752 1 1 0 679.8750446085079 678.3124716842731 652.548835801339 0 0 0
262 1 1 0 647.6376981980889 676.8075248174549 634.9195184469204 0 0 0
2802 1 1 0 664.0180094038693 679.6510739730386 643.1972279876036 0 0 0
264 1 1 0 646.1283619331124 678.020809971949 636.3593962910854 0 0 0
2983 1 1 0 675.6048108452547 676.1345859401529 653.6740313878614 0 0 0
266 1 1 0 646.5587877650613 679.3636353979525 636.270396609517 0 0 0
267 1 1 0 646.943417428392 636.73503940261 666.6828539594669 0 0 0
3314 1 1 0 670.7357770337768 681.8030180918691 652.092241099923 0 0 0
3161 1 1 0 659.3430210511557 680.2543305232895 642.2076467868769 0 0 0
270 1 1 0 634.6078919760253 664.404240869989 636.4205543188078 0 0 0
271 1 1 0 634.9340180356058 661.8215409374635 644.8848836590114 0 0 0
272 1 1 0 652.345695580037 672.3605142257858 671.756586116243 0 0 0
2998 1 1 0 656.1738082109143 680.5926526188289 635.6488984296947 0 0 0
775 1 1 0 640.0990599374692 675.6008580256781 681.6330906781888 0 0 0
1425 1 1 0 645.258873689293 678.7173977742738 681.9110200171338 0 0 0
1273 1 1 0 638.6053695834088 637.0088808339732 658.6060259013927 0 0 0
277 1 1 0 649.7922312398737 635.4637768009399 664.9929913182533 0 0 0
3326 1 1 0 673.5836965092456 680.0179969710276 655.4608191922194 0 0 0
328 1 1 0 655.5277692373882 678.6527117097336 634.3178127750782 0 0 0
280 1 1 0 634.4449246835131 663.23270499845 635.5443114116437 0 0 0
281 1 1 0 650.6126066796583 636.0278705671416 667.3619176189005 0 0 0
1280 1 1 0 677.2967840668147 673.8489289824975 655.979556013431 0 0 0
283 1 1 0 639.1374155489824 637.2692473828607 654.8561707782121 0 0 0
284 1 1 0 654.4740165736134 674.1774050933069 674.5624657745846 0 0 0
2695 1 1 0 680.7956336320685 677.0977506045132 652.1080088802663 0 0 0
5679 1 1 0 633.4257259303174 637.047009756161 651.3777050536818 1 0 0
287 1 1 0 655.6649388630732 672.5843930092173 680.0499365986401 0 0 0
2722 1 1 0 681.6389936575436 679.0131482318878 654.2506863438394 0 0 0
289 1 1 0 657.0381813496411 672.0350751114615 677.4281023740698 0 0 0
290 1 1 0 659.2148550826233 676.224845891384 639.5240413128649 0 0 0
291 1 1 0 661.4764504038018 677.2525273031272 638.6832977212534 0 0 0
292 1 1 0 660.2182427252015 676.684158941134 638.279764496866 0 0 0
3802 1 1 0 638.4309932793491 633.5420531855118 672.4734989071595 0 1 0
413 1 1 0 654.1412107165711 670.4998704489844 681.1928390075324 0 0 0
1353 1 1 0 648.8674079399777 677.6548467338142 634.6578269995957 0 0 0
5645 1 1 0 635.9992883082338 636.3300027395518 650.7393510672812 1 0 0
542 1 1 0 637.9579924473206 680.3254125109127 680.7775926712645 0 0 0
3079 1 1 0 664.4678368936138 678.373259648325 646.4104359152797 0 0 0
1303 1 1 0 636.570906770218 637.9037387223512 653.8388188720526 0 0 0
1132 1 1 0 659.9701051124954 661.9148652999177 682.3145222751305 0 0 0
301 1 1 0 657.6940423096228 676.2483126546031 637.5804570196125 0 0 0
302 1 1 0 659.649035500081 677.2238438353311 637.0330503848462 0 0 0
303 1 1 0 658.4950830434678 676.6019234593194 636.4920154300692 0 0 0
2931 1 1 0 665.6472480999992 680.4300892456876 647.6533793276965 0 0 0
1187 1 1 0 642.9628163242339 634.326830857734 658.573411865684 0 0 0
306 1 1 0 656.6672459597144 673.3411354098125 679.3175100089347 0 0 0
3218 1 1 0 664.4986418255987 677.8022333274317 645.1587451302395 0 0 0
1184 1 1 0 661.7144898725682 676.3213525197484 643.6399815279841 0 0 0
309 1 1 0 670.6964740411304 634.30240366848 670.3615654797972 0 0 0
1028 1 1 0 656.8315245488271 665.4140271131065 681.0391668912202 0 0 0
5546 1 1 0 633.1701838976049 664.8555243651649 650.2772504090717 1 0 0
3007 1 1 0 660.1801304310538 679.308428369816 641.5581472792018 0 0 0
313 1 1 0 655.8027121505513 675.8623517947099 636.1357807400066 0 0 0
314 1 1 0 657.7036636817118 677.2081046521744 635.4229413750561 0 0 0
485 1 1 0 648.3736783216247 633.8653155614262 663.5731576443911 0 0 0
3358 1 1 0 677.8088338545206 677.3977559264471 659.4650703052994 0 0 0
3290 1 1 0 657.0658605345516 681.7846198593764 639.0229726602008 0 0 0
1311 1 1 0 678.2594897375059 674.4909721311706 653.3865272351829 0 0 0
3317 1 1 0 673.1415115498908 677.3659422619756 652.4436062845998 0 0 0
1288 1 1 0 636.5546294800779 633.9903022544825 656.8022461595688 0 0 0
2875 1 1 0 679.8483675391554 678.8516212903827 651.0857128927437 0 0 0
495 1 1 0 654.3801784794964 679.3419266771247 633.8886488614751 0 0 0
323 1 1 0 650.8365010327743 635.5852020532981 668.954870645282 0 0 0
324 1 1 0 654.4067043200733 675.679454866844 636.1581510274881 0 0 0
738 1 1 0 650.0037042094706 674.813998373218 681.9940936165289 0 0 0
1299 1 1 0 636.4798045391576 680.5540894936147 678.4401209789211 0 0 0
67 1 1 0 681.3936116843712 642.8862833214031 634.8429972480841 0 0 0
101 1 1 0 633.6352416446747 659.9716564368935 643.5560709930758 0 0 0
1350 1 1 0 648.3136926231592 636.013419027013 661.4151714260981 0 0 0
3222 1 1 0 666.3473563436796 677.0296497989408 646.5945733788666 0 0 0
331 1 1 0 648.4413956472863 636.2523186417694 668.8850570598286 0 0 0
2976 1 1 0 674.0066792611419 681.4419073376417 648.6872636048441 0 0 0
333 1 1 0 641.5543265971443 635.6607654070548 655.542156320386 0 0 0
3345 1 1 0 679.465990329551 673.7398556722827 658.3374928294164 0 0 0
2715 1 1 0 662.815379463338 679.5393279822167 645.3405059332609 0 0 0
304 1 1 0 677.5991809856409 634.1338256513731 678.2938410710515 0 0 0
337 1 1 0 648.620981167977 635.2808291623184 665.8021118020864 0 0 0
295 1 1 0 652.0691047602018 673.2146540527563 682.254538088932 0 0 0
3726 1 1 0 659.1341030713572 678.9465483225083 644.1698350430933 0 0 0
408 1 1 0 670.8245031938228 634.1765011597884 668.9452653268053 0 0 0
1375 1 1 0 634.7847369747171 663.0894137683097 634.1691842523353 0 0 0
3762 1 1 0 673.5266136700149 677.9015337131395 645.895577422293 0 0 0
343 1 1 0 662.6190181837632 649.296211706297 636.9146995174112 0 0 0
2712 1 1 0 681.8763714029188 679.4065524038829 655.6807711278493 0 0 0
1476 1 1 0 639.3979716837717 633.7662953906477 671.4302525151699 0 0 0
1409 1 1 0 680.7657217082706 651.3952771724631 643.6701343347031 0 0 0
347 1 1 0 671.9069942521061 634.6051283249998 671.1937415452046 0 0 0
1230 1 1 0 634.1932193403687 676.6516284995209 677.8667416256465 0 0 0
349 1 1 0 634.2321550449868 660.1453517373188 641.2666695662352 0 0 0
2790 1 1 0 656.4434048475695 680.6290322201555 639.8579251977762 0 0 0
5543 1 1 0 632.9804231168581 662.8507716762075 651.8823898346765 1 0 0
352 1 1 0 653.5648152204595 665.7360522983312 670.2665037592851 0 0 0
6216 1 1 0 634.4722118829258 637.7901873217174 651.9128902467343 1 0 0
354 1 1 0 653.6294195458668 673.2270332422478 677.4092703735097 0 0 0
355 1 1 0 664.6941504136105 650.4760450571224 637.6093610368127 0 0 0
1333 1 1 0 680.2127106841878 648.9857535238375 642.4572918987924 0 0 0
357 1 1 0 655.0872265757185 664.2463326429198 672.3310290189185 0 0 0
1046 1 1 0 660.3015070066256 667.9333467227955 681.6632403571303 0 0 0
1369 1 1 0 647.0003210521163 636.3590050296773 663.4087259388638 0 0 0
360 1 1 0 648.8884069346226 676.3004935651268 679.543216612847 0 0 0
361 1 1 0 649.1052665023743 673.9906002835907 678.6317684097853 0 0 0
966 1 1 0 638.0586604111727 633.7707760208764 674.850409903308 0 0 0
363 1 1 0 652.9847368412243 667.9087554388905 669.0313274515332 0 0 0
364 1 1 0 644.8613076735946 637.0263756980886 670.3646708490481 0 0 0
1464 1 1 0 636.5173740273726 680.5180084064725 680.9159303769289 0 0 0
366 1 1 0 652.0071762941623 670.5312260367108 679.2751502233184 0 0 0
1394 1 1 0 644.7007581351946 635.8654669642683 658.7900547931139 0 0 0
3304 1 1 0 656.4743371791932 681.9753055130568 637.6995910640566 0 0 0
369 1 1 0 655.7039819727706 665.1847555626472 668.7792509268203 0 0 0
370 1 1 0 651.2606911701404 673.6853405798421 677.9528610469104 0 0 0
173 1 1 0 648.3497680054716 634.6328947910309 668.6056375083074 0 0 0
372 1 1 0 656.8081107789653 673.50472444964 674.6990980742878 0 0 0
373 1 1 0 655.0979746880404 663.9134462432485 670.9074066140703 0 0 0
374 1 1 0 677.1884332868583 675.6840431476892 648.3045715524239 0 0 0
375 1 1 0 654.0660725277652 666.4031248790509 671.7090788907183 0 0 0
3170 1 1 0 660.8219778675009 680.6034072322407 644.0755976144867 0 0 0
377 1 1 0 641.5650003504292 676.209483351536 679.6304672293247 0 0 0
3535 1 1 0 674.8477079655762 678.081469022662 649.5738222267009 0 0 0
346 1 1 0 681.6640411300936 650.3367836961593 643.825323019409 0 0 0
1071 1 1 0 633.9528040862781 679.3039481818362 680.9146918201494 0 0 0
381 1 1 0 670.7245187073523 676.2054286839323 644.8422189027533 0 0 0
382 1 1 0 651.5769150897652 678.8593708271883 639.7530610350748 0 0 0
1085 1 1 0 658.3063109627756 662.0244062315087 682.1813706146934 0 0 0
54 1 1 0 642.5179776811532 679.5822536235679 633.3313511178418 0 0 0
3809 1 1 0 661.9625380360392 678.4327301328292 644.9385771298997 0 0 0
345 1 1 0 637.8822172084807 662.7071011752076 633.879791040224 0 0 0
6047 1 1 0 635.5813529453357 635.846373129854 655.6575837739323 1 0 0
3852 1 1 0 670.2174510505519 675.7042293973569 649.1594457836271 0 0 0
1395 1 1 0 641.2935396214683 634.1116406649656 669.6407963886214 0 0 0
1201 1 1 0 644.0372777385701 633.4544555973725 672.0282837218562 0 0 0
391 1 1 0 680.836545639264 646.0611151144735 640.4161828109886 0 0 0
1456 1 1 0 677.434406357608 675.7061487173104 649.6934327221833 0 0 0
393 1 1 0 642.6739707598363 677.2007058874641 679.4502702244216 0 0 0
3803 1 1 0 665.5955968565037 678.1018584846666 647.1927622796708 0 0 0
2705 1 1 0 679.8278674214783 678.3152342415287 658.3125065963243 0 0 0
1186 1 1 0 650.4702458560793 633.3754916809213 669.7547265816289 0 0 0
2962 1 1 0 667.556003477965 681.1642819041211 648.7874398312313 0 0 0
2992 1 1 0 678.9989027300982 677.5843745737492 654.1846521589331 0 0 0
1371 1 1 0 633.3271139467781 663.3714991057036 638.159274459724 0 0 0
400 1 1 0 639.1221286245836 675.5733835332342 679.4424289603264 0 0 0
401 1 1 0 670.466137404333 647.5339464242038 634.1979086884294 0 0 0
399 1 1 0 681.6938376298912 638.4193261830653 671.9789317194891 0 0 0
1325 1 1 0 678.9579229643806 673.2644612286985 653.1094471829672 0 0 0
1223 1 1 0 679.5668944499291 635.481183710117 676.9979128569287 0 0 0
405 1 1 0 637.8973252535004 664.0061738919619 634.4716961660678 0 0 0
1293 1 1 0 637.4947733838569 635.6761740993643 653.9983819884477 0 0 0
407 1 1 0 652.1134580449173 673.2400725984049 676.7563327910144 0 0 0
3519 1 1 0 681.4677596598856 676.8278254650509 660.0606897124695 0 0 0
365 1 1 0 665.314243355461 652.2437559510041 633.1372497179206 0 0 0
410 1 1 0 648.2936795207552 636.4637269395621 666.5381292701358 0 0 0
55 1 1 0 672.9738961617059 633.3605219136041 674.6957384798654 0 0 0
412 1 1 0 654.4038055415743 672.2330570443509 676.8540032693146 0 0 0
1049 1 1 0 662.544887173995 668.7274995232895 682.0598860771343 0 0 0
414 1 1 0 651.3605718122501 677.0835335167342 677.0169757969713 0 0 0
1388 1 1 0 681.6853787451986 636.2495492563719 678.4165549429165 0 0 0
416 1 1 0 655.4062089241085 675.6975637966846 676.224377502879 0 0 0
417 1 1 0 653.7900296313671 676.6864284957173 677.885247414205 0 0 0
418 1 1 0 661.1175872826223 676.9418990006699 641.0234210745318 0 0 0
419 1 1 0 654.1436245331605 675.4229516757631 675.3592526615784 0 0 0
420 1 1 0 639.1978138435859 636.0915782608431 652.7218836469834 0 0 0
421 1 1 0 644.1346443511611 636.6069885636117 671.5626999531714 0 0 0
3763 1 1 0 638.8346345156635 681.3356884516712 681.6949754227861 0 0 0
423 1 1 0 663.9862663717715 649.1033045639766 637.1811524064743 0 0 0
424 1 1 0 648.1073439514307 634.3137171532334 659.5507822883128 0 0 0
899 1 1 0 633.5322639004717 663.3549943135816 639.5739036190769 0 0 0