LAMMPS data file via write_data, version 2 Aug 2023, timestep = 50000, units = metal

35556 atoms
1 atom types

622.1348577456945 750.5531412543467 xlo xhi
622.6396235965879 750.7573754034022 ylo yhi
622.5335495460268 750.8634494539632 zlo zhi

Masses

1 12.0107

Atoms # full

5942 1 1 0 629.0296677316264 657.595811235567 623.2177056840251 0 0 1
862 1 1 0 623.8197578140781 622.8016504218077 649.3867158921753 0 0 0
3 1 1 0 661.2984884627042 680.9408087414794 628.788359625334 0 0 0
4 1 1 0 665.0404798592681 652.8251035080028 685.9272987229393 0 0 0
5 1 1 0 680.8347372684714 668.4942217302179 672.4425131257887 0 0 0
6 1 1 0 667.8350326650447 679.3687610937748 629.6677478265593 0 0 0
7 1 1 0 631.5586569241591 673.8131615752721 628.1110164398495 0 0 0
9853 1 1 0 660.5902607615067 645.4004117691355 622.9533456206723 0 0 1
9 1 1 0 670.2378945005073 671.6117543230322 626.3693779728087 0 0 0
10 1 1 0 664.2921857657836 625.8352516095134 665.5907859323927 0 0 0
11 1 1 0 680.6949535684558 665.8499219855935 669.0260050194476 0 0 0
12 1 1 0 681.8090933498968 661.9887541809575 674.3694489039867 0 0 0
13 1 1 0 676.0132354966744 660.0119912089643 675.810765123274 0 0 0
536 1 1 0 622.7065759562506 625.4426947435996 654.2284016823756 0 0 0
1024 1 1 0 655.6692253542654 622.7373096764645 660.82835276361 0 0 0
16 1 1 0 632.9253172078801 628.7179164527528 648.0986950815729 0 0 0
17 1 1 0 678.8589143241472 660.0742335483803 656.8129930028578 0 0 0
18 1 1 0 632.0233463370189 672.5659783040891 627.6020735640226 0 0 0
19 1 1 0 632.252701240109 673.1653957607361 630.2980771402767 0 0 0
9708 1 1 0 647.4963216030974 685.2322208613474 622.6502681709768 0 0 1
9282 1 1 0 664.0393506725258 651.9957449728845 623.2242910977034 0 0 1
22 1 1 0 657.598710840803 683.2412735295665 631.7620993177258 0 0 0
23 1 1 0 666.9113760124179 655.7110030850081 684.333348405929 0 0 0
24 1 1 0 633.6869652336331 677.0063545917754 628.2276700726226 0 0 0
25 1 1 0 673.4018941388781 628.6737195269079 678.053471642461 0 0 0
26 1 1 0 652.3080026805385 669.5616916807388 684.9757085646751 0 0 0
27 1 1 0 659.7003961751384 625.9161295971962 664.0513059967269 0 0 0
28 1 1 0 630.5337252502966 674.263370458067 625.9017525895215 0 0 0
138 1 1 0 623.3965144808109 663.9707378995238 631.2971244419388 0 0 0
3317 1 1 0 622.6743564690289 671.5631027810176 635.4883330371296 0 0 0
31 1 1 0 666.8796217039469 625.9032831966929 668.9512384350862 0 0 0
4469 1 1 0 686.3362208155611 657.8702561536476 661.9381714950287 0 0 0
33 1 1 0 629.6831399098861 626.8861638528784 648.7533563725397 0 0 0
34 1 1 0 630.9409532189461 672.991193753724 625.4877519843059 0 0 0
35 1 1 0 629.9056418712756 672.4717646955863 630.6257686009371 0 0 0
36 1 1 0 623.6144295713896 664.4139786671282 633.7734570451066 0 0 0
37 1 1 0 682.6755852254064 663.205501117539 677.0909222358218 0 0 0
38 1 1 0 623.6832877862182 678.8869458198689 663.2804693394334 0 0 0
1198 1 1 0 656.4503476381262 661.4703069271601 686.3248742657323 0 0 0
40 1 1 0 641.7317414001492 626.5600251950544 657.5985679979497 0 0 0
41 1 1 0 673.3365548303987 656.2017943469476 625.4725967619173 0 0 0
42 1 1 0 629.9687840144696 672.6594309181683 633.0917809645813 0 0 0
43 1 1 0 670.804333341074 628.8886228823512 680.0787167088763 0 0 0
44 1 1 0 624.7079319295461 671.4135182497707 629.037300073062 0 0 0
377 1 1 0 667.0185416568306 676.7345346409295 626.4351134940589 0 0 0
46 1 1 0 658.0299707618391 680.31602434097 628.8596723734879 0 0 0
47 1 1 0 645.5369978422711 625.5440577399887 660.6992507936917 0 0 0
3568 1 1 0 655.4294429097049 679.9170391443236 625.7529036575371 0 0 0
49 1 1 0 630.745511234643 669.7543217764002 628.305195960109 0 0 0
1271 1 1 0 646.654353531587 624.7640400445766 660.6246933158176 0 0 0
51 1 1 0 624.6426476820662 670.5467316673736 626.8870141854769 0 0 0
553 1 1 0 663.640085380841 681.1483415871262 627.0294838307849 0 0 0
53 1 1 0 625.003504322561 672.2258437560395 631.292594018304 0 0 0
54 1 1 0 638.5840665030971 626.4604783190463 655.6149121196004 0 0 0
55 1 1 0 653.8062579625879 683.8679522421593 631.2144015210289 0 0 0
56 1 1 0 624.2974544664743 681.3921702395988 662.9311399485609 0 0 0
57 1 1 0 681.8590954813434 669.1884089788979 674.1035064406842 0 0 0
3836 1 1 0 647.9208055667957 686.1057795493899 625.6125500115297 0 0 0
59 1 1 0 670.7947241238322 625.5213120489676 678.6565019566611 0 0 0
60 1 1 0 626.3836435060454 664.4124092307474 627.4813517642002 0 0 0
61 1 1 0 625.2099613565845 673.360473595805 632.1273628869714 0 0 0
62 1 1 0 673.8846476393568 630.441863163372 681.1667441170486 0 0 0
63 1 1 0 627.1496998251375 662.2346600406584 625.8923120643931 0 0 0
9647 1 1 0 681.08393423264 625.7431819973367 623.6993057878652 0 0 1
65 1 1 0 630.8924211110854 674.6610621617972 627.1848661189015 0 0 0
66 1 1 0 623.9853250330809 671.4368678685557 635.0327769023503 0 0 0
67 1 1 0 626.3766622641166 671.9622587516427 627.4030182499148 0 0 0
2312 1 1 0 685.7305592172096 670.6247311167531 661.8873461454072 0 0 0
69 1 1 0 665.1630009825213 625.5247221310766 666.7504980941555 0 0 0
70 1 1 0 627.1479086967943 674.6915240705424 657.3297056448366 0 0 0
71 1 1 0 630.810953136696 672.5079185377438 652.4029359661757 0 0 0
72 1 1 0 629.5570654455806 673.1254795216363 652.0701741571489 0 0 0
73 1 1 0 670.6448771457934 629.5486295336924 681.3019866317462 0 0 0
74 1 1 0 629.9781027075569 675.2541169194519 653.2861061862277 0 0 0
75 1 1 0 670.6532731887417 630.9439769779312 681.2864134588073 0 0 0
76 1 1 0 655.2609224783105 625.1350835345374 661.3256508085319 0 0 0
77 1 1 0 626.9110233119492 671.2043957227944 632.3582028570542 0 0 0
4089 1 1 0 644.0775815956362 686.629146054609 644.2323520271775 0 0 0
79 1 1 0 661.2214253175662 625.2663125118719 667.3226851907714 0 0 0
80 1 1 0 625.6967608480982 674.5572731406091 631.490620384986 0 0 0
638 1 1 0 685.5954521093411 668.8067244540567 669.2268687841729 0 0 0
82 1 1 0 623.5001680758755 672.1411315979883 637.6222195789605 0 0 0
83 1 1 0 623.2026762167247 657.0074044411526 655.6980406956487 0 0 0
8743 1 1 0 665.6952835013853 658.969696972743 623.1893052655463 0 0 1
8948 1 1 0 624.9279257400126 666.0342597178557 623.400229157229 0 0 1
86 1 1 0 625.6641796094962 673.5750139068691 658.9371850960205 0 0 0
87 1 1 0 624.7305152058832 672.675071945392 636.9148377575942 0 0 0
88 1 1 0 624.3841208962472 673.3811104948079 659.4482095012602 0 0 0
89 1 1 0 643.0324802581873 678.722914999053 661.1319398482397 0 0 0
90 1 1 0 627.3667193129913 675.4367738415754 656.1612424214961 0 0 0
91 1 1 0 643.4965319668911 679.5461024632223 662.1658583617926 0 0 0
92 1 1 0 629.7824375084573 674.5073262529432 651.8971685989361 0 0 0
93 1 1 0 625.9255354358776 674.5416708208045 657.9333994525362 0 0 0
94 1 1 0 666.7714124730473 643.7525172963938 626.2069538963394 0 0 0
95 1 1 0 625.0402577987729 675.5511400449127 657.6615633935335 0 0 0
2786 1 1 0 655.9668746011266 624.0206030571387 657.9073277357935 0 0 0
8451 1 1 0 644.9891650213733 673.4465065397702 686.52341075652 0 0 0
98 1 1 0 643.0039734661304 677.9264992993067 664.2604564522167 0 0 0
99 1 1 0 658.7725654059778 680.0836720472957 629.9730997205818 0 0 0
100 1 1 0 647.0655146662333 678.3947793006371 681.1277079411335 0 0 0
101 1 1 0 643.1118683233675 676.2551674973247 667.5041387371004 0 0 0
102 1 1 0 642.7723051807546 677.7946672484076 665.6299176929896 0 0 0
103 1 1 0 646.1048335162956 676.9518146008365 669.5320960406165 0 0 0
104 1 1 0 644.7679967681784 676.7389133104418 669.1659031058929 0 0 0
105 1 1 0 646.5092114602867 672.7450340390036 669.1336444724544 0 0 0
106 1 1 0 646.0637282615681 673.3746620921343 667.7613817248867 0 0 0
107 1 1 0 645.208545418399 672.8304795945754 670.0821431373929 0 0 0
108 1 1 0 646.6644028481472 676.088185067831 670.541787753076 0 0 0
109 1 1 0 645.2345560548338 674.3685684510616 665.3155731535783 0 0 0
110 1 1 0 646.9624689418627 676.7909554321111 671.6747210806062 0 0 0
111 1 1 0 643.4572822181717 679.1523241845703 663.6468451092395 0 0 0
112 1 1 0 644.6485574764926 673.6519620985582 667.5724535860902 0 0 0
113 1 1 0 644.2670318024307 673.9329859283137 669.9547015503028 0 0 0
114 1 1 0 624.1963811238812 668.2586159143128 626.8757934005886 0 0 0
115 1 1 0 642.7331062445029 674.9499368755063 667.9792689121526 0 0 0
116 1 1 0 643.9118917798442 677.1802231333766 668.2011082437142 0 0 0
117 1 1 0 636.7580647815338 677.8283611990731 660.99359214365 0 0 0
118 1 1 0 631.801934048336 673.587889599187 657.5032202001729 0 0 0
119 1 1 0 633.7879972995482 678.3954567023405 662.2366572499824 0 0 0
120 1 1 0 642.6310758027281 677.4300083027639 661.4059610997257 0 0 0
121 1 1 0 643.43243519093 676.6103131037704 662.2814173247099 0 0 0
122 1 1 0 642.8607923677747 674.2059864367758 665.7544781952117 0 0 0
123 1 1 0 642.0386273341139 674.2775435463495 666.9087494574583 0 0 0
124 1 1 0 648.2202529884712 674.486272940922 671.5335615817347 0 0 0
125 1 1 0 642.8534091492493 676.481846241819 666.1248868803962 0 0 0
126 1 1 0 635.4421131811965 677.4084768345515 660.6496021209392 0 0 0
127 1 1 0 665.6549605014844 627.1738248835 677.7155813171726 0 0 0
128 1 1 0 670.6189417168445 628.7906344570447 684.9068992032832 0 0 0
129 1 1 0 658.1858925503992 679.3350480591189 627.7337278559161 0 0 0
3736 1 1 0 649.6373895449004 685.8300998156761 662.2572119587602 0 0 0
131 1 1 0 667.4694178175633 626.1506459148568 678.8437401148624 0 0 0
132 1 1 0 665.4898380509687 684.6475557210663 629.3848701896368 0 0 0
1183 1 1 0 643.071587509914 685.4309201988613 626.2106109294965 0 0 0
4354 1 1 0 622.8101348042896 650.4013707970425 667.4576402705846 0 0 0
135 1 1 0 671.7799101616662 633.5685012396451 682.0612266438957 0 0 0
20977 1 1 0 622.5302984844976 678.9433487283136 661.3950029105887 1 0 0
752 1 1 0 642.6320986485911 685.3836882460854 623.3906716543344 0 0 0
9767 1 1 0 669.0183949610167 647.9209486569215 622.8197566661563 0 0 1
139 1 1 0 643.8304173681055 679.9361734634517 665.9162879671753 0 0 0
140 1 1 0 644.258141294636 673.8126740728122 666.1708268412914 0 0 0
141 1 1 0 634.2089501940461 677.4195918199027 661.2997095910004 0 0 0
142 1 1 0 643.1651201780744 678.8121649168688 666.5119734705357 0 0 0
143 1 1 0 631.8723547510485 673.6824802991972 656.0914788502955 0 0 0
144 1 1 0 625.7504689824569 676.1112102450003 660.944158410033 0 0 0
145 1 1 0 633.2026063571302 676.5499655865298 660.8189811825957 0 0 0
146 1 1 0 626.1237198159711 678.2347830019464 659.9583256362723 0 0 0
147 1 1 0 635.3308429195433 677.058186415565 659.2707200466696 0 0 0
148 1 1 0 633.5552835701259 675.6321925625007 659.785920026938 0 0 0
149 1 1 0 629.8993838081267 677.871647047884 662.1190813790403 0 0 0
150 1 1 0 628.1594281514617 673.9189742972573 657.9209350484153 0 0 0
151 1 1 0 626.7604452124009 673.1928078811209 659.7660171737864 0 0 0
152 1 1 0 624.2242819303614 673.10790684431 660.8798695845983 0 0 0
153 1 1 0 632.6568625425207 672.849690254895 653.9831939482069 0 0 0
154 1 1 0 643.0018904769044 676.6398331269045 663.6356664104663 0 0 0
155 1 1 0 643.089922575954 675.4930960594484 664.8412989037712 0 0 0
156 1 1 0 643.8549086645728 678.5134560329317 667.7775596330926 0 0 0
157 1 1 0 630.5516037672496 673.6654831250637 658.0974936230108 0 0 0
158 1 1 0 634.5008580935039 675.6885679621618 657.4973358217412 0 0 0
159 1 1 0 628.9007675948191 674.418267561104 661.1417391963162 0 0 0
160 1 1 0 629.2119229593377 673.6190581049844 660.0367035634212 0 0 0
161 1 1 0 627.5416387045157 674.6448927905375 661.4146550143228 0 0 0
162 1 1 0 629.2500926409076 676.8157215082219 661.4997942608159 0 0 0
163 1 1 0 626.6218212666158 673.5873535386272 661.1415674648503 0 0 0
164 1 1 0 629.7454018882759 675.5317299687222 661.4092550385037 0 0 0
165 1 1 0 624.9328421718545 675.1945467425429 661.6143768033015 0 0 0
166 1 1 0 627.9293382638261 677.0639566321285 660.9680213584975 0 0 0
167 1 1 0 630.750704650878 674.2953069695311 655.4548793246527 0 0 0
168 1 1 0 627.0953230513886 675.9233230186372 661.0082173873112 0 0 0
169 1 1 0 624.3028982588858 678.6144598465387 658.2332143043499 0 0 0
170 1 1 0 625.2883098915457 673.7904607373055 661.5489094431015 0 0 0
171 1 1 0 625.2754565077889 677.1363592397919 660.1713948796854 0 0 0
172 1 1 0 634.2186769673837 673.8308413701029 655.7566343993682 0 0 0
173 1 1 0 629.3738330394452 673.9660192482363 657.3506178991013 0 0 0
174 1 1 0 632.9731113855846 673.3199746904146 655.2708129811718 0 0 0
175 1 1 0 634.024881624326 674.45184143272 657.155503616322 0 0 0
176 1 1 0 627.4377627152865 678.9485258094453 662.274647203627 0 0 0
177 1 1 0 632.7242366307811 674.5938350873967 659.4461628690776 0 0 0
178 1 1 0 627.2079496078478 678.3360245124866 660.8997406746065 0 0 0
179 1 1 0 625.4362631408457 679.1773569867456 659.0286870027429 0 0 0
180 1 1 0 628.9061867410412 678.7699087695552 662.653834728352 0 0 0
181 1 1 0 675.9224573197522 678.0800769585805 626.0658927661093 0 0 0
182 1 1 0 671.160324690328 624.8243327649164 679.844379065207 0 0 0
183 1 1 0 665.9626138344948 640.4929329991951 684.7627101931488 0 0 0
184 1 1 0 680.8061253337935 659.6757456924615 673.9722795236507 0 0 0
185 1 1 0 624.2106188255179 670.3859707471577 634.1060868220296 0 0 0
186 1 1 0 632.3215365420868 671.5055681005217 628.4683209917557 0 0 0
2819 1 1 0 651.4009123064343 625.4182440061782 651.9508700733618 0 0 0
188 1 1 0 666.8775142164964 653.1145218608785 626.362369173858 0 0 0
3318 1 1 0 638.5972686261417 624.5116380721954 657.2536350799037 0 0 0
190 1 1 0 624.4837034038839 664.9164857322921 654.1784529321222 0 0 0
191 1 1 0 684.5995093296208 659.6146153394668 661.5170044955164 0 0 0
192 1 1 0 651.8683331794579 671.0561236374963 683.1060645578044 0 0 0
11523 1 1 0 635.86243939997 622.8104806133606 680.6886179073618 0 1 0
4259 1 1 0 686.1158130496499 668.9665329726157 666.6685019963112 0 0 0
195 1 1 0 633.0724993873249 625.7100460823483 650.8420926293641 0 0 0
196 1 1 0 629.2379198700586 671.2111615812732 632.9323349881388 0 0 0
9659 1 1 0 662.3668187996993 640.1249971031639 623.7214315704607 0 0 1
198 1 1 0 633.7661168934098 629.4150277499216 652.8947621574945 0 0 0
240 1 1 0 672.0176863826014 669.4858227895502 623.9449003423197 0 0 0
200 1 1 0 625.7276251923925 671.0750090786483 631.6647401558196 0 0 0
201 1 1 0 631.3323138544274 648.238916578001 658.2243824038623 0 0 0
202 1 1 0 655.2037998806258 683.4759258837926 631.1851376677419 0 0 0
203 1 1 0 629.8486935391568 672.0112812659858 638.3619924032438 0 0 0
4478 1 1 0 673.0504742206928 671.7232273016637 624.1169325623295 0 0 0
205 1 1 0 631.5655200041883 641.3371232603052 658.1666800242284 0 0 0
206 1 1 0 630.7183170969134 669.6227149222788 635.8290554024513 0 0 0
430 1 1 0 659.4093993859174 681.1984846683633 625.4778553272947 0 0 0
208 1 1 0 624.7603410816016 678.5532911002645 665.3853282247068 0 0 0
209 1 1 0 638.063812956509 627.7464109533312 655.3510167053665 0 0 0
2274 1 1 0 623.4677265799141 670.0473902579988 650.9944894305108 0 0 0
211 1 1 0 682.2972208932882 656.818896383154 659.1674793171542 0 0 0
212 1 1 0 647.2114917812858 685.0049349912805 650.8450895489129 0 0 0
213 1 1 0 672.6199506602889 672.9249616971093 626.07363248584 0 0 0
214 1 1 0 682.3698371571695 660.5180048183605 679.2744842974357 0 0 0
215 1 1 0 626.0174010323383 673.333964239106 629.4004102959568 0 0 0
216 1 1 0 657.7375553068276 663.3693289931034 685.6199301863395 0 0 0
12550 1 1 0 667.6580171321507 623.0546142812358 673.9141249341137 0 1 0
218 1 1 0 630.9302253328134 668.0961205637611 626.4645761238859 0 0 0
29 1 1 0 670.0821650790344 686.042894994125 628.5421066742628 0 0 0
220 1 1 0 632.6040584065664 624.5621860087535 655.9669060977594 0 0 0
9850 1 1 0 641.1001940984135 680.2701848241708 685.8040887811834 0 0 0
9711 1 1 0 672.412882596628 653.4167621278274 623.1946103678395 0 0 1
223 1 1 0 631.651464887563 674.1418197121102 629.498926979605 0 0 0
224 1 1 0 674.8558963671869 659.4299272567733 675.4331567812944 0 0 0
225 1 1 0 679.130305147671 663.1278222043226 674.5484016327501 0 0 0
8325 1 1 0 624.6511773160237 653.3406290506645 623.4183951232588 0 0 1
2825 1 1 0 657.6764349661377 625.4751111361339 655.7775375596276 0 0 0
5249 1 1 0 652.7907818131107 685.3188755397846 622.6656134692968 0 0 1
10571 1 1 0 631.2105124759327 622.815836186754 653.6045010487188 0 1 0
3448 1 1 0 648.1985671752471 686.6877015785702 642.0745877004242 0 0 0
231 1 1 0 672.6286311107816 634.0093116919949 683.3160086998766 0 0 0
232 1 1 0 663.5461553282894 683.1693571471802 628.6378163178882 0 0 0
233 1 1 0 664.051709618096 629.0900522240795 682.53501933384 0 0 0
234 1 1 0 655.3927568230887 662.5178361455751 683.856527993414 0 0 0
235 1 1 0 659.3746677001659 678.5130800758343 629.7708574675645 0 0 0
600 1 1 0 678.2886293153491 622.8845660273721 671.1788603135461 0 0 0
237 1 1 0 639.9834840587096 626.3299801938458 655.6861201704505 0 0 0
2356 1 1 0 684.5239408912556 671.1298048208199 667.4132642625547 0 0 0
2787 1 1 0 656.3444337383892 685.2205873840569 636.9681241025053 0 0 0
9580 1 1 0 649.2996566565424 686.5870801448269 623.4995660102428 0 0 1
912 1 1 0 670.34306749142 623.191304260083 673.6381632185992 0 0 0
4456 1 1 0 666.0977208653153 653.1767103434534 624.0536569441321 0 0 0
243 1 1 0 676.4484098649776 661.3456561113437 675.1371496939998 0 0 0
9461 1 1 0 673.3864781388146 682.729436190793 624.6732376851968 0 0 1
245 1 1 0 669.3027037637494 634.5460938564977 679.8615117705201 0 0 0
246 1 1 0 671.1638105009279 627.4680382917497 682.4790411045392 0 0 0
247 1 1 0 645.5237132638938 676.8263316642743 674.8747806699835 0 0 0
248 1 1 0 624.5280110936276 669.3283894581429 627.6023348558602 0 0 0
249 1 1 0 648.3528276305088 676.6063566189426 679.2839607064387 0 0 0
250 1 1 0 670.3346660863035 662.7701135939628 624.06966974526 0 0 0
251 1 1 0 624.8365184289293 667.2788487420472 653.8310284833477 0 0 0
1483 1 1 0 671.944108399301 637.2408103075368 685.7073826009761 0 0 0
2967 1 1 0 623.3100629797814 660.783485116821 664.2127759630037 0 0 0
1043 1 1 0 664.2483297636043 646.7615065552811 623.5975634548347 0 0 0
255 1 1 0 660.3616652243878 625.1298224058014 666.2355095057485 0 0 0
256 1 1 0 628.2521968588734 624.0506820096541 655.3659942102413 0 0 0
323 1 1 0 623.0461787220145 655.1948029130712 657.6171493014689 0 0 0
258 1 1 0 677.7399225030929 657.1473932032677 677.027233535779 0 0 0
3438 1 1 0 667.1318802223115 630.1112680435181 686.0444060594624 0 0 0
136 1 1 0 671.7387359760903 623.0560817176429 678.4596198276417 0 0 0
261 1 1 0 684.4817912720976 660.9911050546409 676.2306480272806 0 0 0
4460 1 1 0 649.1807753972598 624.831872554122 660.5342279734998 0 0 0
263 1 1 0 662.3121813495557 626.5145489762295 663.4603980920789 0 0 0
264 1 1 0 670.0392843361465 681.147403468339 629.6041065608846 0 0 0
3966 1 1 0 649.6575730600459 685.6669331681898 638.853358619497 0 0 0
266 1 1 0 647.5965856946544 676.7010925744634 676.2990695262087 0 0 0
267 1 1 0 670.6995982229337 628.781806604479 682.4659329168355 0 0 0
4437 1 1 0 685.8443148977943 671.4231366730951 672.7204598379233 0 0 0
265 1 1 0 623.1195381122752 676.7468718174564 661.038214096506 0 0 0
3117 1 1 0 665.1186075503654 623.2653624695143 685.8262431800815 0 0 0
271 1 1 0 625.4156460430589 651.2588511496023 658.2330618443002 0 0 0
272 1 1 0 671.2046266437184 669.6978608898415 625.049293961582 0 0 0
273 1 1 0 632.0790229639921 670.1772081525024 627.9428948093887 0 0 0
274 1 1 0 630.3209582614744 650.1127604785528 654.6681741877142 0 0 0
4235 1 1 0 622.2892897733266 656.9125019260156 665.6509291267076 0 0 0
276 1 1 0 624.084939182694 667.9326770880081 632.8631965020521 0 0 0
4405 1 1 0 684.2217873890194 657.4869170149532 663.4108915367789 0 0 0
1067 1 1 0 669.6350163339581 623.3384154733486 672.4760086178215 0 0 0
279 1 1 0 681.6030634728361 659.4143945041322 670.6463565945079 0 0 0
4300 1 1 0 678.8468204576754 664.9845207838341 670.5043618439378 0 0 0
281 1 1 0 644.3696293121907 679.4504642830381 684.2017748921846 0 0 0
282 1 1 0 622.9584698594757 667.7646819141778 655.0859820198636 0 0 0
4317 1 1 0 680.4880396913115 658.0412177562978 677.2647280819762 0 0 0
284 1 1 0 630.889850565583 672.1434847736292 639.27294526711 0 0 0
521 1 1 0 662.810738036344 683.2779700773682 626.3430430257488 0 0 0
286 1 1 0 643.4724162980983 677.0146835831998 678.3936146919249 0 0 0
287 1 1 0 671.9280388337517 656.7544913441958 626.2458380324806 0 0 0
288 1 1 0 625.3563160362787 658.1733715356833 655.5827903424121 0 0 0
3824 1 1 0 653.4352013529748 686.6494003496342 655.1181092448371 0 0 0
290 1 1 0 626.1068173851672 654.6943944425034 654.9620085606452 0 0 0
291 1 1 0 680.3163293118423 659.9306065867257 666.4351392781787 0 0 0
292 1 1 0 623.4735363119293 661.7473120410405 655.7148213451645 0 0 0
2807 1 1 0 652.2299225234801 624.1644195224021 652.2189593211751 0 0 0
294 1 1 0 664.5086244994214 647.4997487293892 684.7344620870842 0 0 0
1313 1 1 0 669.8596439644921 622.8947965277854 674.8979385180369 0 0 0
9600 1 1 0 660.1263187349894 640.9241070665603 624.0087890336177 0 0 1
297 1 1 0 676.7084263187191 656.106016668819 676.1282767318216 0 0 0
298 1 1 0 625.1791467040307 680.2026927138805 662.6632254130338 0 0 0
299 1 1 0 643.3831447615486 676.0297351935452 677.4495990632123 0 0 0
300 1 1 0 627.5839294988048 661.5864888650985 656.1369404418431 0 0 0
301 1 1 0 643.4770647706467 674.6970708408987 677.9436804897898 0 0 0
302 1 1 0 668.7717226387642 630.1849663716964 673.9488381544975 0 0 0
303 1 1 0 644.2567004330956 673.8070404775955 680.154271703508 0 0 0
304 1 1 0 634.1690302541656 625.7754092332294 653.23679973116 0 0 0
305 1 1 0 664.4029302912966 674.5106181494748 627.7681672952637 0 0 0
306 1 1 0 645.4264815071028 674.9127759318455 681.9214365929045 0 0 0
307 1 1 0 671.7619975658656 657.3296138177878 624.8014737864471 0 0 0
308 1 1 0 648.7761029825502 675.5940328855525 676.2635184680008 0 0 0
309 1 1 0 684.4234898724665 665.4842555833573 661.269106409954 0 0 0
310 1 1 0 649.867099538281 675.6675285030582 677.4299396325357 0 0 0
311 1 1 0 678.9474263589444 664.5045848160681 668.1306065973404 0 0 0
9806 1 1 0 643.4954420342867 681.3905389189022 685.7916538808392 0 0 0
313 1 1 0 642.5672011812056 678.8364406524256 682.6869135388123 0 0 0
314 1 1 0 628.253301023963 672.1559688720673 633.9195723787143 0 0 0
315 1 1 0 628.7667197948476 671.1067499571805 628.5009279097351 0 0 0
316 1 1 0 630.7888653799698 627.5864960874121 653.2180954045325 0 0 0
317 1 1 0 673.474712128298 631.6975101429825 681.8106207528546 0 0 0
318 1 1 0 674.0627034593604 629.2075444580607 681.8980862464832 0 0 0
319 1 1 0 646.5385590524858 674.4871263819922 665.6997694609685 0 0 0
320 1 1 0 631.2953044924298 673.0198731554718 653.6085373535336 0 0 0
1328 1 1 0 657.4944899809469 623.7766939007511 658.2236657075554 0 0 0
322 1 1 0 630.0835369316738 670.0910023325715 633.5200305401737 0 0 0
2404 1 1 0 672.4808361366062 622.9189886299193 672.5998639070929 0 0 0
324 1 1 0 678.4885411518146 661.2177926533574 662.3239923188427 0 0 0
325 1 1 0 667.9474339215561 624.0186876569842 681.626911752242 0 0 0
9638 1 1 0 678.8225628296681 683.9348674654686 623.5004236614947 0 0 1
327 1 1 0 644.8610728566515 677.1562973979155 676.0203727110343 0 0 0
328 1 1 0 628.5428687738737 627.7591526079137 647.86152457394 0 0 0
329 1 1 0 625.4785738144371 653.5739154164984 655.5589682714844 0 0 0
330 1 1 0 675.4831618339382 625.6923287395333 679.1655353818908 0 0 0
1 1 1 0 667.9022003271323 626.1315795319924 686.6080444230455 0 0 0
332 1 1 0 630.1424814475239 668.9533727673007 627.2932461759075 0 0 0
333 1 1 0 625.0436102576124 678.6947781501159 663.9972320645601 0 0 0
334 1 1 0 625.5132314012089 663.2898932685893 627.3246989114571 0 0 0
335 1 1 0 640.4557639436152 626.051302424897 657.047090682629 0 0 0
336 1 1 0 643.0765844851499 674.8537106502665 682.2349150477108 0 0 0
337 1 1 0 644.832927930928 678.8027044824075 681.8694694026397 0 0 0
338 1 1 0 646.5620934539148 678.2191240715919 679.8018111491742 0 0 0
339 1 1 0 654.3095167426162 668.2571813804308 681.352579920468 0 0 0
340 1 1 0 646.9332585199654 676.871539459216 675.0497908358979 0 0 0
341 1 1 0 641.5346186534381 676.7338232705248 681.9898127724024 0 0 0
342 1 1 0 643.3368586502471 674.5260609728389 679.3257280240666 0 0 0
343 1 1 0 678.1195719617363 663.770719718554 670.7824235981986 0 0 0
344 1 1 0 645.4774806695563 675.4766000686575 683.1953795294427 0 0 0
345 1 1 0 642.5102976147804 675.5519217092616 680.0078616257391 0 0 0
346 1 1 0 648.74100708406 675.4610825357738 678.5858898523853 0 0 0
347 1 1 0 670.8999807522248 627.4805367698686 679.9882071823793 0 0 0
348 1 1 0 657.7171635747922 626.0249156962653 662.1481639413954 0 0 0
349 1 1 0 643.9324695151242 679.231232225871 682.8544172855119 0 0 0
350 1 1 0 671.5902808441942 627.0882867985314 676.5329534080184 0 0 0
351 1 1 0 644.3293094432274 675.5761403372222 684.1238043301169 0 0 0
352 1 1 0 646.2878671836222 677.8227392595716 683.5881365511973 0 0 0
353 1 1 0 643.0553569505929 675.2853453623064 683.5710877224556 0 0 0
354 1 1 0 683.4608022161265 663.9456406875023 676.1643019584927 0 0 0
355 1 1 0 645.1754880853155 678.4188868706448 679.4746397298006 0 0 0
356 1 1 0 671.1453474928252 625.4699037350462 681.1090895570248 0 0 0
357 1 1 0 646.1746072881346 678.3248454591496 682.2152485643621 0 0 0
358 1 1 0 648.3512059383963 677.7909994189208 681.3469591722808 0 0 0
359 1 1 0 647.2863626473815 677.4155431527518 678.8198788907227 0 0 0
360 1 1 0 656.7472493970201 625.583635693356 661.0393178698068 0 0 0
361 1 1 0 677.8493122399186 663.0354125400453 679.4154888648071 0 0 0
362 1 1 0 624.4606087089379 669.4006135397707 624.8131495775458 0 0 0
363 1 1 0 660.6012634432266 625.9529770266751 665.079372979718 0 0 0
364 1 1 0 658.2765498465528 626.5570995711622 659.3614801535532 0 0 0
8260 1 1 0 655.0021494580842 679.8946579547978 623.4431413795774 0 0 1
366 1 1 0 668.1222643929772 627.091863480292 675.1185019501775 0 0 0
367 1 1 0 683.581152591291 663.1533113930464 658.0042832521713 0 0 0
368 1 1 0 644.2903205439969 678.4680466332733 680.5663689977463 0 0 0
369 1 1 0 670.8062956811074 626.9065520035518 678.7429296271332 0 0 0
370 1 1 0 629.51720105997 658.510186980595 659.5936920685142 0 0 0
371 1 1 0 648.2614656827277 679.5517665250354 627.2245634104138 0 0 0
372 1 1 0 650.9842942938003 669.8061231602611 680.7838444944259 0 0 0
373 1 1 0 629.9982162583377 657.1664142603986 659.8356705178046 0 0 0
374 1 1 0 644.2059946637196 674.351685837134 681.5056494700829 0 0 0
375 1 1 0 646.8580456132252 677.2108082236896 677.451983503821 0 0 0
8968 1 1 0 628.9496632384253 665.394324869837 623.8845959157719 0 0 1
10421 1 1 0 667.9373647451048 623.7927659775395 676.1557831253061 0 1 0
378 1 1 0 623.3734185805615 678.572308521424 665.9211343093068 0 0 0
379 1 1 0 681.4165971859373 661.722126080539 675.8251707683336 0 0 0
380 1 1 0 664.6110063813319 625.9936563581024 664.2243572622261 0 0 0
239 1 1 0 675.4676848396974 685.396402649171 625.7593756394203 0 0 0
382 1 1 0 673.778885364265 682.6274130686925 627.1000655560036 0 0 0
9957 1 1 0 666.4449060486836 623.7284719221574 673.9611983998516 0 1 0
384 1 1 0 626.6636611959282 653.5146548307606 657.885000092883 0 0 0
385 1 1 0 664.1270997886243 655.8897142189589 682.1306034634912 0 0 0
11021 1 1 0 651.3284239496446 623.9492346096166 661.4804264846937 0 1 0
387 1 1 0 648.5422516072582 670.7128915749731 679.6344309849119 0 0 0
8425 1 1 0 658.8462369627968 641.1611051757775 623.5321537576901 0 0 1
389 1 1 0 624.9581852612693 654.7210776718141 658.9908225455139 0 0 0
2950 1 1 0 624.0579549699456 650.9950992396149 667.0307056274531 0 0 0
391 1 1 0 625.3417019493693 654.0260156853053 657.9078790535642 0 0 0
4468 1 1 0 681.0747663225518 663.6056697838512 659.8139671966537 0 0 0
3814 1 1 0 624.0568368185686 664.9243995590215 623.4797106256044 0 0 0
394 1 1 0 626.4427583053039 652.1423271483383 657.205990877635 0 0 0
395 1 1 0 625.8939241849124 664.9459467151892 654.5242410693571 0 0 0
396 1 1 0 674.9857947530278 675.8481129947113 626.0134587050072 0 0 0
4810 1 1 0 639.5909884342578 675.8863710491283 623.2212917737886 0 0 1
3625 1 1 0 685.7410683292679 661.6577672396271 678.2448239114607 0 0 0
11527 1 1 0 660.9295143468306 622.8576118816114 665.9866818684084 0 1 0
400 1 1 0 671.6901503577781 625.171902849017 675.231592351267 0 0 0
401 1 1 0 645.0949586293096 673.483121230757 673.4797150284036 0 0 0
402 1 1 0 625.4591425170366 660.4832868513315 655.4916829256022 0 0 0
403 1 1 0 670.8217764691365 642.4505931043544 683.1860020378451 0 0 0
404 1 1 0 682.5143952033422 664.0408107764483 667.9056299748281 0 0 0
2821 1 1 0 654.1874661472943 625.3569978938103 653.1839965563604 0 0 0
406 1 1 0 623.9724369491925 655.8159938795312 655.5082091772949 0 0 0
407 1 1 0 667.3933365057721 642.025142059151 623.8455865476725 0 0 0
408 1 1 0 630.3983216898395 651.9935990850267 659.5529795344356 0 0 0
1003 1 1 0 647.1659288266919 685.5554366217598 638.4206324744558 0 0 0
410 1 1 0 626.1245150534276 659.2966288388868 655.7186255348399 0 0 0
1010 1 1 0 664.8429789051748 642.3011942267337 623.5405186681348 0 0 0
10026 1 1 0 665.8872561126957 622.7242224763977 669.2781352630022 0 1 0
254 1 1 0 646.7335659664071 680.4270558052652 623.9631072595153 0 0 0
414 1 1 0 673.831032100889 658.29917520655 624.4757944796784 0 0 0
415 1 1 0 655.2137702288019 666.1532295654589 685.5382371871721 0 0 0
416 1 1 0 659.1831981993599 683.1594401705681 627.0452120482088 0 0 0
417 1 1 0 623.6191584650823 663.9407313699656 654.7709987085136 0 0 0
418 1 1 0 684.0272978529524 660.9102537566079 674.896604351333 0 0 0
419 1 1 0 645.6923085783691 674.9607980719961 673.2266412111477 0 0 0
2817 1 1 0 649.8590913750087 625.322686683221 651.8271781270518 0 0 0
421 1 1 0 624.091692240138 660.5253069379584 655.662277794963 0 0 0
9401 1 1 0 648.8885606534303 685.2088654048697 623.0679253364004 0 0 1
423 1 1 0 666.9436265936391 646.7697280691605 627.9720500534689 0 0 0
424 1 1 0 629.5711915218843 648.8812154632019 654.6647398647908 0 0 0
425 1 1 0 644.6045149245866 627.4574346205462 659.7305809533864 0 0 0
426 1 1 0 636.1736804145885 630.2619879469205 655.3040503197792 0 0 0