LAMMPS data file via write_data, version 2 Aug 2023, timestep = 50000, units = metal

28292 atoms
1 atom types

632.1645982637314 736.2694017362788 xlo xhi
632.5894309200917 736.5535690798988 ylo yhi
632.6688408898154 736.474159110175 zlo zhi

Masses

1 12.0107

Atoms # full

3184 1 1 0 683.9291505497637 658.9136299247667 669.2656138320293 0 0 0
2 1 1 0 639.5180247693253 638.0178716773515 638.1025037744853 0 0 0
3 1 1 0 663.8421218524846 635.4523489997362 682.173491100858 0 0 0
3506 1 1 0 668.6010832857205 669.2516894143503 632.9855518483848 0 0 1
5 1 1 0 639.6204718554931 637.5386068205648 636.5845302550234 0 0 0
6 1 1 0 640.5681949335111 638.5520740964047 635.9343685978656 0 0 0
7 1 1 0 663.2890565101349 634.1854253106568 682.6335966080687 0 0 0
8 1 1 0 678.758912233615 681.2899716414054 637.9433804357218 0 0 0
9 1 1 0 664.9528047408745 635.308542249839 681.3093042862481 0 0 0
10 1 1 0 675.5187547070207 683.3384764751412 674.6809320605826 0 0 0
11 1 1 0 634.3137107236047 665.5941940795495 679.124276009316 0 0 0
12 1 1 0 659.7751196658264 676.3528938852143 680.5873548995925 0 0 0
13 1 1 0 682.607419867818 674.7484903448423 677.496525402584 0 0 0
14 1 1 0 665.6771158899257 634.1941316174269 681.020559601172 0 0 0
15 1 1 0 633.5476114271302 668.0063491470545 648.0804610983356 0 0 0
16 1 1 0 666.9165091031089 634.1976084723476 680.0255369468478 0 0 0
17 1 1 0 653.3242321939094 681.9645959825167 657.6344970767642 0 0 0
280 1 1 0 683.3982076582607 660.2659812861216 683.5517060429703 0 0 0
19 1 1 0 647.4736354455681 682.8871888745223 664.0291409224911 0 0 0
20 1 1 0 633.5998569800528 664.7080198086281 683.8520239786143 0 0 0
21 1 1 0 646.490810314252 683.4120723946161 661.7212171744897 0 0 0
22 1 1 0 639.9175721695656 636.1475854132501 636.3157973315354 0 0 0
23 1 1 0 641.7303174697067 638.0421948868856 635.4096126920284 0 0 0
24 1 1 0 641.2750091496569 635.9436241664278 636.412050284755 0 0 0
25 1 1 0 641.5598450539953 635.1026092979682 637.5278874756887 0 0 0
26 1 1 0 642.2189215397153 636.9504430672779 636.1058302237946 0 0 0
27 1 1 0 643.0952645183892 637.378803066837 637.1650067224265 0 0 0
28 1 1 0 642.4096556526887 635.6027143862511 638.5151176153436 0 0 0
29 1 1 0 642.186250349189 633.4626997829649 640.124246070874 0 0 0
30 1 1 0 642.7070248455543 636.9620300140668 638.4325306407161 0 0 0
31 1 1 0 642.1950624127014 637.9692910361887 639.2211855177676 0 0 0
32 1 1 0 642.1820181276039 634.9919565337559 639.9540257863447 0 0 0
33 1 1 0 640.8166118617515 635.4440150461069 640.4379614563294 0 0 0
34 1 1 0 640.9746841181039 637.8088215252645 639.8632807650616 0 0 0
35 1 1 0 640.957229773253 638.1050334435138 641.1832255790042 0 0 0
36 1 1 0 640.8352814567091 635.6924243192624 641.798135266753 0 0 0
37 1 1 0 641.5898664003035 634.6467144489056 642.4012137827613 0 0 0
38 1 1 0 640.7787102824502 637.1077527319904 642.2380995673566 0 0 0
39 1 1 0 641.2876059335179 637.4459889456332 643.4755933766407 0 0 0
40 1 1 0 643.4884525249792 636.6949880234503 642.8177677828706 0 0 0
41 1 1 0 644.3212411213814 637.7600254615954 642.6364560233412 0 0 0
42 1 1 0 642.4598712479262 636.8253182677674 643.8129161824505 0 0 0
43 1 1 0 643.062688729854 636.9658083301821 645.1630479167492 0 0 0
44 1 1 0 644.7350854506169 638.3861470150556 643.7807511824763 0 0 0
9727 1 1 0 638.3358398544278 684.2924669669264 672.935606169681 0 0 0
46 1 1 0 644.3131950822748 638.0291833199265 645.0808864053599 0 0 0
47 1 1 0 644.9765484642757 638.1708768813228 646.3082989244499 0 0 0
48 1 1 0 639.7895555417107 677.4709335010009 673.7498863537103 0 0 0
1933 1 1 0 677.6285647596612 684.4392383999472 640.2802828091235 0 0 0
50 1 1 0 681.3045349943413 660.902338831551 682.3486223889317 0 0 0
51 1 1 0 677.6859360227735 656.0471166538945 635.8878371996811 0 0 0
676 1 1 0 683.9404160946519 659.8928106994525 672.4817487493788 0 0 0
53 1 1 0 643.6537927456574 639.2903325272757 635.9154341511357 0 0 0
54 1 1 0 643.6103132125246 638.6504635378724 637.1111343112769 0 0 0
55 1 1 0 644.1578484915385 640.5626168120069 635.8762300918582 0 0 0
56 1 1 0 644.9077465628022 640.9904910401916 636.9853164342194 0 0 0
57 1 1 0 646.4943660739043 642.1649513659436 635.3973237683254 0 0 0
58 1 1 0 646.2285986612063 641.245210958636 636.7897432323914 0 0 0
59 1 1 0 646.6946747011203 643.8174923535151 635.775180952991 0 0 0
60 1 1 0 647.7452723158698 643.2280127910177 637.8600017110358 0 0 0
61 1 1 0 645.9474378514033 644.384583850015 636.8844872502531 0 0 0
62 1 1 0 646.7097719218043 644.2065913646454 638.0683514072894 0 0 0
63 1 1 0 636.9339102244825 657.1777141725257 655.9802162626978 0 0 0
64 1 1 0 643.9905162661031 644.6035352298386 638.1506502579078 0 0 0
65 1 1 0 643.5612030420351 639.4790064768733 638.2424319562916 0 0 0
66 1 1 0 642.7092440269724 639.2396147178513 639.2853990870307 0 0 0
67 1 1 0 644.4064531172139 640.6417558768899 638.308445057752 0 0 0
68 1 1 0 644.6388612717191 641.0258216997537 639.6769560185362 0 0 0
69 1 1 0 646.8903927142854 640.9727480078071 637.9756806731004 0 0 0
70 1 1 0 646.0801982945817 641.1845762136506 640.221808542062 0 0 0
71 1 1 0 647.5351159924024 642.0997800942336 638.69944405978 0 0 0
72 1 1 0 646.9184259961148 642.3506000549123 639.9578061769096 0 0 0
73 1 1 0 646.1163192252602 644.4169356721227 639.3371881993864 0 0 0
74 1 1 0 646.5796907945164 643.664968345182 640.3784613998729 0 0 0
75 1 1 0 644.689127473674 644.6680236800747 639.2940594837773 0 0 0
76 1 1 0 644.007103551501 644.4533294259581 640.4683943210343 0 0 0
77 1 1 0 642.1398173838459 640.2422023958858 640.3741626631144 0 0 0
78 1 1 0 641.5230716873814 639.3321587245252 641.4700795523759 0 0 0
79 1 1 0 643.6680538060735 640.6224162728802 640.5947709612561 0 0 0
80 1 1 0 644.0346609227373 640.6935123013685 641.9753035598956 0 0 0
81 1 1 0 646.3453441802695 640.8455108495413 641.5979692769153 0 0 0
82 1 1 0 645.2904450409306 640.3670251796412 642.3371940048239 0 0 0
83 1 1 0 647.4606475440488 641.5569036944568 642.1755877363363 0 0 0
84 1 1 0 647.2318033933828 642.3715002701857 643.2425270980544 0 0 0
85 1 1 0 646.0524723313669 643.9852130084882 641.7041436475779 0 0 0
86 1 1 0 646.5841175116981 643.6458310413936 643.0373096480821 0 0 0
87 1 1 0 644.7398593162859 644.527568617142 641.705263415375 0 0 0
88 1 1 0 644.0576879935438 644.6909752591479 642.9227875088955 0 0 0
89 1 1 0 642.6776888976428 644.2064371634757 642.9163930110028 0 0 0
90 1 1 0 641.8142326103822 639.6547072631339 642.7770654993054 0 0 0
91 1 1 0 641.3096842617105 638.8233495669598 643.7998301246726 0 0 0
92 1 1 0 642.8725550584977 640.7626586915046 642.939215368191 0 0 0
93 1 1 0 643.3725299526661 640.7072296942508 644.3352381370447 0 0 0
94 1 1 0 645.8895514047872 640.6635213267641 644.2402517415874 0 0 0
95 1 1 0 644.6097264780434 641.0561561804603 644.818998933618 0 0 0
96 1 1 0 646.8085691762276 641.7112775345021 644.382818642076 0 0 0
97 1 1 0 646.7544015953072 642.4117579751444 645.6184835305397 0 0 0
98 1 1 0 646.0418178139334 644.1955466756002 644.2309702998652 0 0 0
99 1 1 0 646.4752028714759 643.7753887211749 645.5148644256628 0 0 0
100 1 1 0 644.7532851164086 644.7770003749827 644.1241020249846 0 0 0
101 1 1 0 644.008121388668 644.8146198205551 645.3249848233697 0 0 0
102 1 1 0 642.0892513215906 643.8528337737988 644.1325426565402 0 0 0
103 1 1 0 642.5896195149338 644.446053529306 645.364743402167 0 0 0
104 1 1 0 641.793606503472 639.0807945164368 645.0506197551282 0 0 0
105 1 1 0 642.2893005698973 638.0826397131667 645.961936993197 0 0 0
106 1 1 0 642.4190723584223 640.2851234614772 645.2282067226475 0 0 0
107 1 1 0 642.2767010271874 641.0862101786827 646.4292909360615 0 0 0
108 1 1 0 644.6557326492834 641.371556569535 646.1680258398601 0 0 0
109 1 1 0 643.6089425298401 641.5197369767169 647.0060767224335 0 0 0
110 1 1 0 645.9612115160859 641.7124494196958 646.5862939946526 0 0 0
111 1 1 0 646.0267202614767 642.1547890405318 647.9439096996263 0 0 0
112 1 1 0 645.87043528174 644.2556250559838 646.7438302270276 0 0 0
113 1 1 0 645.9356924042764 643.5585805088396 648.0620748070093 0 0 0
114 1 1 0 644.6413673203897 644.9371275984089 646.5288973950383 0 0 0
115 1 1 0 677.3999749217269 657.3747072818715 633.9069180123572 0 0 0
116 1 1 0 636.636630374269 673.4405160828554 635.9414126026093 0 0 0
117 1 1 0 640.1929263859275 679.721776428709 676.8748922654103 0 0 0
118 1 1 0 642.7440537236005 638.7114777073919 647.0556300219146 0 0 0
119 1 1 0 644.1732592515899 638.6704755465354 647.2981977663827 0 0 0
120 1 1 0 641.991502922443 639.856941124678 647.3758522747388 0 0 0
121 1 1 0 641.563067413707 640.9201051173791 648.2973598624844 0 0 0
122 1 1 0 643.8557699667945 641.7526090979828 648.326388254554 0 0 0
123 1 1 0 641.9506027517752 642.2384951497041 648.0528772631255 0 0 0
124 1 1 0 645.1545998587011 641.406934426609 648.7604376036859 0 0 0
125 1 1 0 643.0450818693812 642.8097308969598 649.1870685082483 0 0 0
126 1 1 0 682.0169867380135 673.5990335734416 675.5635763314875 0 0 0
127 1 1 0 674.7012748038734 655.679997313895 634.7844211827372 0 0 0
128 1 1 0 675.7832240139312 656.2277429297023 643.2235719191032 0 0 0
129 1 1 0 635.160736351656 638.9090735796697 634.6254335134847 0 0 0
130 1 1 0 661.058072444265 682.8097770324737 677.4102997190128 0 0 0
736 1 1 0 657.3410574144634 653.0307199251556 684.4293124906666 0 0 0
132 1 1 0 638.5634126825289 681.4220403788676 679.3299648196072 0 0 0
133 1 1 0 671.2914807058826 653.7673214362754 633.6595533112954 0 0 0
134 1 1 0 640.046689307923 678.2054173552623 671.3744421900172 0 0 0
135 1 1 0 637.4429021764395 676.7004928956148 681.2080693345915 0 0 0
136 1 1 0 647.1030977812716 634.2562820405215 662.7338980232927 0 0 0
137 1 1 0 635.5663558999038 634.585296178967 676.8261007473262 0 0 0
138 1 1 0 655.6613057913863 636.3019581534852 662.096056985246 0 0 0
139 1 1 0 677.691850965619 656.0043204207285 637.3099110943114 0 0 0
140 1 1 0 681.7546326989657 659.3892942677767 672.2990716449174 0 0 0
141 1 1 0 643.7394965080088 680.8934663541315 679.435173946042 0 0 0
142 1 1 0 637.2211217198641 674.8033700353558 677.1364981329355 0 0 0
1937 1 1 0 679.3199314462901 683.9893317733986 671.7149152705476 0 0 0
144 1 1 0 637.565327449276 676.1587749618526 676.8465091807973 0 0 0
145 1 1 0 635.1163599085155 636.4780320015362 634.7564102525581 0 0 0
16360 1 1 0 632.4012371117002 676.1241413699126 653.0576259049495 1 0 0
147 1 1 0 668.4815696063476 639.9962682016885 683.2772470487075 0 0 0
148 1 1 0 637.4709107384126 675.2985883024616 681.0422009413794 0 0 0
149 1 1 0 637.9599293663491 673.0027885345198 635.480180996221 0 0 0
150 1 1 0 676.0176045419009 655.4209007629972 634.3445985295466 0 0 0
151 1 1 0 634.7986178495947 635.9647149968391 657.7550450940815 0 0 0
152 1 1 0 640.9985015387201 678.701750338902 670.4641614128994 0 0 0
1256 1 1 0 653.222173680452 654.2747177293638 683.6376387891538 0 0 0
154 1 1 0 644.5965387887119 645.2406234266498 649.0139529528863 0 0 0
155 1 1 0 638.6080092359902 676.4259648941384 676.0585318396353 0 0 0
9048 1 1 0 644.7935297539108 633.061100923862 683.8596905933406 0 1 0
157 1 1 0 638.1670978061854 673.098271327422 633.8940936369181 0 0 0
158 1 1 0 645.8327574884672 639.3746007844378 643.4107875401635 0 0 0
159 1 1 0 639.9601709818127 640.7846602454342 637.2978405761711 0 0 0
160 1 1 0 649.4528027582884 634.8760062529199 662.788660502757 0 0 0
161 1 1 0 683.1131099407835 662.4539322798571 682.7058098631271 0 0 0
162 1 1 0 632.8998060705158 642.9349876819102 658.5484571610363 0 0 0
2688 1 1 0 683.6968685863363 666.9204674391686 676.6539980192332 0 0 0
164 1 1 0 636.9698233557639 641.1840392553482 634.2990255538926 0 0 0
165 1 1 0 676.9265469328516 654.9683564950395 635.3911479015104 0 0 0
166 1 1 0 635.0759542447483 681.4529336730482 670.7858073911302 0 0 0
167 1 1 0 657.5496480794752 676.6751779407189 678.0275398376398 0 0 0
3202 1 1 0 632.7652328086541 636.6407743454216 633.2407278259166 0 0 0
833 1 1 0 642.8344529406962 632.9954955337812 672.5708355835865 0 0 0
170 1 1 0 681.920493344807 659.155760372566 670.8386921207857 0 0 0
171 1 1 0 683.1798323343226 664.2991497682768 676.1348760332918 0 0 0
172 1 1 0 633.199555992821 655.2224511475177 658.828632763861 0 0 0
173 1 1 0 682.2451485785025 679.5095095732472 635.3939995731293 0 0 0
174 1 1 0 645.5516493262614 645.4814750847498 634.2136433048511 0 0 0
175 1 1 0 639.8812431841467 678.2316961892275 675.1077248458862 0 0 0
176 1 1 0 636.701795892067 673.1382967026749 680.0470701033659 0 0 0
177 1 1 0 661.1614167997072 680.4489025536506 679.580025069814 0 0 0
178 1 1 0 682.3670676099005 637.9275040579665 647.1862527064301 0 0 0
179 1 1 0 642.666155379402 642.0230333960684 633.0919065415844 0 0 0
180 1 1 0 636.3993923309628 636.392896690507 635.465443592466 0 0 0
10562 1 1 0 670.3926036546463 632.9882679749225 636.7431470252853 0 1 0
182 1 1 0 674.3740634834616 655.1598769522648 636.1164711194966 0 0 0
580 1 1 0 632.9526298464546 666.3775725819085 633.7732758946901 0 0 0
184 1 1 0 683.4734790230066 657.2734132458689 674.1923222367834 0 0 0
185 1 1 0 654.6779706673432 678.4282733758952 683.1328382101899 0 0 0
186 1 1 0 654.6582547127769 634.0954946452722 662.7373812244014 0 0 0
1557 1 1 0 662.845893193857 684.0012136529086 653.4746493722746 0 0 0
188 1 1 0 648.4779089088318 681.4727876395216 681.5796709028392 0 0 0
17358 1 1 0 632.7293160788932 655.1707496509922 656.3273389732683 1 0 0
190 1 1 0 651.6755583881534 671.1349744828498 634.712308574331 0 0 0
191 1 1 0 635.6386289014008 682.1410792328079 673.2935356456178 0 0 0
192 1 1 0 637.0127634272193 650.5201968956958 657.2461789264565 0 0 0
193 1 1 0 636.5311602657787 682.2342206752411 676.1209617092633 0 0 0
194 1 1 0 643.4228883839959 681.1364323644436 674.3201537252003 0 0 0
195 1 1 0 681.4077256411064 676.0664343153294 675.8688509321105 0 0 0
196 1 1 0 642.7496276589039 643.9229085587419 640.4418569231334 0 0 0
197 1 1 0 643.914776955538 645.2800288654171 647.7433727288724 0 0 0
198 1 1 0 639.9930921133898 635.8044439176082 639.3892055212502 0 0 0
17344 1 1 0 684.1545738854159 664.9586683141448 675.2798804885297 0 0 0
200 1 1 0 633.4089399424447 664.6812924280399 679.790386639343 0 0 0
201 1 1 0 642.4070949201677 645.085946337668 647.7793661362558 0 0 0
202 1 1 0 678.9713018949278 658.366318864292 680.2234290818918 0 0 0
203 1 1 0 641.9956920608612 644.2469142039758 646.6571135002547 0 0 0
204 1 1 0 673.2455796598282 655.6830211367263 636.7558324267371 0 0 0
7090 1 1 0 666.0531142536254 655.4342963476553 633.0255899344334 0 0 1
926 1 1 0 645.4817718890638 644.0107086833686 684.0704847850757 0 0 0
207 1 1 0 642.7663508621642 643.9727890387159 638.0746599804617 0 0 0
208 1 1 0 656.3215041732495 677.0811694191939 675.3212431334096 0 0 0
209 1 1 0 642.2570311643983 643.4051125967247 639.2118977960234 0 0 0
210 1 1 0 641.3606529830846 642.2945237227151 639.1978890074028 0 0 0
211 1 1 0 641.3516253305978 641.5858628833447 640.4442577489352 0 0 0
212 1 1 0 642.1231445067152 643.7271796034397 641.6544851577536 0 0 0
213 1 1 0 641.6002418188693 642.3651077538294 641.6803744392803 0 0 0
214 1 1 0 651.0656576359129 682.8636456409232 657.7185985684793 0 0 0
215 1 1 0 649.6245859409272 681.6893088865507 682.5721786699659 0 0 0
216 1 1 0 682.8416471969703 657.368116655757 675.3943052273214 0 0 0
217 1 1 0 633.6447925261216 675.1466841186491 678.2537486457047 0 0 0
218 1 1 0 635.7286302614157 657.6578761756006 658.0744391303788 0 0 0
219 1 1 0 674.3064745770516 654.8495748427653 683.1986279744007 0 0 0
220 1 1 0 660.9712266102688 675.4255940655808 676.3738666719563 0 0 0
221 1 1 0 641.1669277627354 654.8381319025141 681.3294756754016 0 0 0
222 1 1 0 641.8599327309802 679.9252956678756 670.2806711499643 0 0 0
223 1 1 0 646.2816678079557 683.777916793973 660.2647524940086 0 0 0
224 1 1 0 638.3870843621739 678.9556044884797 678.3218087472459 0 0 0
1010 1 1 0 645.6854852729304 683.8286273269567 665.2186170761577 0 0 0
226 1 1 0 670.929239928447 651.111205274048 634.1683913904037 0 0 0
227 1 1 0 639.3231116809744 677.5724741226035 676.2944042650416 0 0 0
228 1 1 0 678.3203302858914 654.9292010064803 639.3108010049783 0 0 0
229 1 1 0 679.2394353737362 676.3065068123005 634.672496328052 0 0 0
14655 1 1 0 684.1207926951837 662.9042227029415 683.6059732076508 0 0 0
231 1 1 0 671.2480723629033 649.7968413754073 634.3474030635035 0 0 0
232 1 1 0 671.4292207739546 648.8690322510912 633.3049108309237 0 0 0
233 1 1 0 671.4913893405217 647.9092977464202 635.8825844878738 0 0 0
234 1 1 0 645.1181868946361 680.6996781340328 671.4850278530241 0 0 0
235 1 1 0 645.1489248560171 681.5804628073602 681.1205223639608 0 0 0
236 1 1 0 636.5870632263781 633.9755519631706 634.8489441878896 0 0 0
237 1 1 0 665.0342633436678 648.0693212760963 683.9153413752316 0 0 0
238 1 1 0 671.1954679605227 647.5246038158967 633.5745197050495 0 0 0
803 1 1 0 635.2956753560951 684.3301799529987 676.9971160783481 0 0 0
240 1 1 0 671.379609463874 647.0421849255056 634.8041497517743 0 0 0
241 1 1 0 671.6197177608129 645.6489501979194 635.02731203006 0 0 0
242 1 1 0 672.037426544055 645.2222291388456 636.3461846031541 0 0 0
243 1 1 0 644.9370700393841 634.3256264270144 647.2515121509647 0 0 0
244 1 1 0 679.2562467941174 683.640116489925 637.0365346685215 0 0 0
245 1 1 0 634.6272800122646 635.2806556785641 673.6948814751032 0 0 0
246 1 1 0 638.938576491973 634.4466069956294 674.5756124951242 0 0 0
3223 1 1 0 645.5967739183952 683.162977261367 684.3461594620782 0 0 0
1033 1 1 0 683.5618281594222 663.2479787076909 673.5788998342437 0 0 0
249 1 1 0 671.3890715176329 644.7306469704843 634.0064305686452 0 0 0
250 1 1 0 671.7212157578923 643.3839845456134 634.2664800637898 0 0 0
251 1 1 0 672.5361484741699 643.9422806430518 636.5855215718618 0 0 0
252 1 1 0 672.3005860006413 643.052662777921 635.4826596725859 0 0 0
253 1 1 0 673.0726235443084 643.5541389178311 637.8925799467879 0 0 0
254 1 1 0 674.1095576155635 642.6381484592517 638.5744585054678 0 0 0
255 1 1 0 674.2763945178604 641.2471150686522 638.5181430538713 0 0 0
256 1 1 0 661.501452778559 676.7036178186771 672.8331317621805 0 0 0
257 1 1 0 682.488494376388 637.368925422414 648.5568017655465 0 0 0
258 1 1 0 633.0635651045351 637.7995638395312 658.0316120008428 0 0 0
259 1 1 0 671.2003088309608 651.9957966377763 635.1715415705754 0 0 0
260 1 1 0 671.386511803067 649.2865103256956 635.6525661523951 0 0 0
261 1 1 0 671.8986229723946 647.4929820275165 637.150997196868 0 0 0
262 1 1 0 671.9390178760472 646.1164905849064 637.4025659335446 0 0 0
263 1 1 0 672.1319430645881 645.7509180911485 638.7020433351879 0 0 0
264 1 1 0 672.739176878686 644.4868929944587 638.9026937391213 0 0 0
265 1 1 0 674.4757920798513 643.3078700762326 639.8388531257523 0 0 0
266 1 1 0 639.0465387947947 633.8259539934286 682.5254698524149 0 0 0
9713 1 1 0 641.3054526471016 684.495893349319 664.4005040733923 0 0 0
2628 1 1 0 641.6236341121623 637.8257231069076 684.1167964104671 0 0 0
269 1 1 0 642.7222423128648 683.1698925153745 670.1659248588862 0 0 0
270 1 1 0 634.8465499359941 680.131862068983 670.914781478637 0 0 0
271 1 1 0 633.4709988317401 674.1718798175422 634.2415562987655 0 0 0
272 1 1 0 635.63245588795 668.8484933842749 680.457561697768 0 0 0
273 1 1 0 633.1372411863085 664.5003808731287 681.1720055656474 0 0 0
274 1 1 0 667.5385435665761 633.9064755496917 668.0945268524379 0 0 0
275 1 1 0 642.595029029964 646.3936925238175 649.755693812072 0 0 0
3211 1 1 0 657.6368168702297 650.7848109573295 684.4508015816825 0 0 0
277 1 1 0 658.6225382291797 673.8898004779827 671.0801326372317 0 0 0
278 1 1 0 638.2207309147623 634.4331849326513 679.5308301627563 0 0 0
279 1 1 0 680.1510255670544 681.9424986015415 670.1698210396797 0 0 0
2940 1 1 0 677.8484889168298 659.7086325601938 633.289350101743 0 0 0
281 1 1 0 681.3005895873698 661.2746378378819 680.9868878910692 0 0 0
282 1 1 0 634.5427007415683 668.151096019936 634.3440187996945 0 0 0
283 1 1 0 643.8192049987264 681.778635514499 681.8185458587446 0 0 0
284 1 1 0 678.6644615674685 653.8291095228922 640.1253031884653 0 0 0
2694 1 1 0 639.5320335999545 632.7003060240646 662.0873205350329 0 0 0
286 1 1 0 661.723699761057 674.2606202459102 676.4655791014046 0 0 0
17345 1 1 0 683.705584926362 663.9202229830457 678.384228133546 0 0 0
288 1 1 0 635.2081306888914 653.2998436295441 658.4286378377748 0 0 0
289 1 1 0 642.3798727119602 654.9741990178921 680.5865448198208 0 0 0
290 1 1 0 634.3320409832006 673.9653975261259 635.2947161180736 0 0 0
291 1 1 0 658.4184114625787 674.0461153852432 673.7679176914854 0 0 0
292 1 1 0 635.8162681724616 676.1358602768518 677.796423972853 0 0 0
293 1 1 0 661.2690480891675 673.4394601231887 672.6019258969583 0 0 0
294 1 1 0 636.0721323530883 672.7213480556164 636.9965076551647 0 0 0
295 1 1 0 660.8494477627502 671.7476105411787 676.4823804942883 0 0 0
296 1 1 0 638.5161208834081 675.7519849218562 674.8026271833586 0 0 0
297 1 1 0 637.913307013265 634.7474165518463 678.2485561555832 0 0 0
298 1 1 0 642.6759583579153 638.9849402651024 634.9808059965047 0 0 0
299 1 1 0 678.8477219121744 657.0318728095679 645.2725344884722 0 0 0
10571 1 1 0 681.7660947868374 634.84971204551 652.000002786324 0 1 0
301 1 1 0 677.826828069729 676.6476968106144 634.1649326052134 0 0 0
302 1 1 0 634.2507078757848 664.4238063678255 676.8258981358928 0 0 0
303 1 1 0 673.4761653415666 680.5921264329626 674.4336280144261 0 0 0
304 1 1 0 638.1206203444749 637.9452138040152 636.4944499427708 0 0 0
305 1 1 0 681.0446715697298 680.4664749477547 677.7260683920827 0 0 0
306 1 1 0 663.3825906752232 682.898245425221 678.7004918395484 0 0 0
307 1 1 0 679.2976837225037 652.1954570501618 644.6500901127973 0 0 0
308 1 1 0 682.700073484172 683.7942151260241 637.9988553819112 0 0 0
309 1 1 0 676.5706236105124 653.986894539813 636.4050990320229 0 0 0
310 1 1 0 675.2092342091753 654.1000527316405 636.7445110020277 0 0 0
311 1 1 0 677.5014429823931 653.6662589850919 637.5129795811092 0 0 0
312 1 1 0 677.0784069116957 652.8476766168098 638.6581487106522 0 0 0
313 1 1 0 681.1779782551555 637.2857090602753 649.1523445784854 0 0 0
314 1 1 0 677.9844927507627 652.7034414163968 639.7562944436505 0 0 0
315 1 1 0 635.5811526855312 641.271106701741 633.5600298519985 0 0 0
316 1 1 0 674.7407204562121 680.2173679244481 672.4078328363942 0 0 0
317 1 1 0 635.057339785485 657.6217479589803 684.0311634419359 0 0 0
318 1 1 0 655.6435579614624 676.5080402081634 676.5404551243416 0 0 0
319 1 1 0 658.6184477481657 676.4060863178726 677.3339297931632 0 0 0
320 1 1 0 635.7088862960876 674.1290457384715 635.1398330438658 0 0 0
17150 1 1 0 633.0265968599546 646.8258999982594 658.9427262221627 1 0 0
322 1 1 0 660.6826472847739 672.2263063511011 672.8783621191985 0 0 0
323 1 1 0 659.458611944643 671.482172292488 676.636644022084 0 0 0
324 1 1 0 672.7289520087195 654.8610825770073 637.8146715058162 0 0 0
325 1 1 0 674.8639984318847 653.6327215163448 638.0164698071312 0 0 0
326 1 1 0 673.8409512296403 654.4775469187755 638.8792560698116 0 0 0
327 1 1 0 675.5976531907526 652.816272005566 638.8633479873348 0 0 0
328 1 1 0 675.2347587596973 652.4511733118128 640.1742785292969 0 0 0
329 1 1 0 677.5620914174515 651.904012638013 640.8583457500707 0 0 0
330 1 1 0 676.1569784162598 651.7832244414448 640.95988784601 0 0 0
331 1 1 0 678.2336368608172 651.8197822270306 642.1250441703402 0 0 0
332 1 1 0 677.8207901095989 650.9689172875114 643.2172056397227 0 0 0
333 1 1 0 645.5915683834545 681.3299966997358 677.4866648406768 0 0 0
334 1 1 0 678.6765152724448 650.9294394548277 644.384733827649 0 0 0
335 1 1 0 641.6419640816059 683.0938620872931 671.2142489755282 0 0 0
336 1 1 0 671.23287920107 653.3758012142453 634.9830046542245 0 0 0
337 1 1 0 671.8598521108211 653.8924115180522 637.2272955711098 0 0 0
338 1 1 0 671.8790142522035 652.4749023189506 637.4457942731087 0 0 0
339 1 1 0 673.2500939734413 652.9866261474676 639.3616415231608 0 0 0
340 1 1 0 672.5826430980879 652.0705393575422 638.5800524396508 0 0 0
341 1 1 0 673.7152459543622 652.6489183150004 640.8280646567231 0 0 0
342 1 1 0 673.307272698472 651.1852991214565 641.1912545789038 0 0 0
343 1 1 0 675.6652893790183 650.9750182393008 641.9662301876629 0 0 0
344 1 1 0 674.4854340164702 650.3182417720794 641.6341528993411 0 0 0
345 1 1 0 676.2375202859622 650.7515315723765 643.4178607863654 0 0 0
346 1 1 0 675.732666388784 649.4217963967245 643.9654684452183 0 0 0
347 1 1 0 678.3794386303415 650.028512081253 645.5211989917163 0 0 0
348 1 1 0 677.6605112824917 648.8269197460687 645.2228604741189 0 0 0
349 1 1 0 671.6054730356436 651.5769128897211 636.4464189611899 0 0 0
350 1 1 0 671.7157025033366 650.2140743643129 636.6573398764673 0 0 0
351 1 1 0 672.557745325807 650.6796983149852 638.8051469499354 0 0 0
352 1 1 0 672.1547756602827 649.7632919943323 637.8717364871751 0 0 0
353 1 1 0 672.6662644602505 650.2901930714938 640.1126028899657 0 0 0
354 1 1 0 672.3587766445157 648.992092985393 640.3820321564091 0 0 0
355 1 1 0 674.2061538063085 649.1260418274273 642.1755337708755 0 0 0
356 1 1 0 672.7408206605551 648.5936785001434 641.7881656553723 0 0 0
357 1 1 0 674.6760779978091 648.8137442349843 643.402996160277 0 0 0
358 1 1 0 673.5449544900754 648.0518682026944 644.1533675198261 0 0 0
359 1 1 0 676.0123539642805 649.0588708606009 645.415724690869 0 0 0
360 1 1 0 674.2593583292472 647.7039243058026 645.4105798161049 0 0 0
361 1 1 0 672.1644303676823 648.3957517905461 638.1655027759098 0 0 0
362 1 1 0 672.2939588425045 648.0165778770433 639.4852433637607 0 0 0
363 1 1 0 672.1527305866305 646.6276366534958 639.8193876193958 0 0 0
364 1 1 0 672.5925530859423 647.160642290149 642.0958102341335 0 0 0
365 1 1 0 672.5109287907412 646.2113944011909 641.105973187622 0 0 0
366 1 1 0 673.1995606986969 646.8540123495663 643.366009790656 0 0 0
367 1 1 0 674.2105896067177 645.8369398475267 643.3425477293558 0 0 0
368 1 1 0 675.3164162621081 646.7416022435449 645.3391098082884 0 0 0
369 1 1 0 675.3870422902063 645.9694348498192 644.1078627433885 0 0 0
370 1 1 0 673.2519813626147 645.0556666883236 641.1787297924725 0 0 0
371 1 1 0 673.4378502793412 644.2451394182642 640.0797394775926 0 0 0
372 1 1 0 674.2786765398678 644.9882081679866 642.1997328051434 0 0 0
373 1 1 0 675.5203879568288 644.305274757259 641.8530960007936 0 0 0
374 1 1 0 676.6305589327286 645.7061550858582 643.4856421538756 0 0 0
375 1 1 0 676.733362238152 644.9189996803841 642.3553920858118 0 0 0
376 1 1 0 679.5265494605314 653.1831424240399 643.6434628113428 0 0 0
4336 1 1 0 644.444215592747 682.151594713991 633.1793493492123 0 0 1
378 1 1 0 637.0614504864106 637.6631159576852 635.6322760847677 0 0 0
379 1 1 0 640.3981733956583 678.1518128972691 672.726313577391 0 0 0
380 1 1 0 653.1985860015964 675.4125461405974 667.3042410728643 0 0 0
381 1 1 0 635.4366351469612 658.9073813962108 683.5032953746148 0 0 0
382 1 1 0 635.5425218240026 680.8728098389156 673.8262036187178 0 0 0
383 1 1 0 647.7373366186978 679.5289318577602 671.197975215274 0 0 0
384 1 1 0 678.0030107529045 650.6439620128986 646.8430698942127 0 0 0
385 1 1 0 677.4092568763836 650.1914057818628 648.0554144903549 0 0 0
386 1 1 0 676.4764605674285 649.1069254679278 647.9483931052678 0 0 0
387 1 1 0 676.3132591583853 648.3655115271295 646.8715396804647 0 0 0
388 1 1 0 676.4817400489059 647.1524609618681 645.9885485690937 0 0 0
389 1 1 0 677.5529343899916 647.3752876574825 645.0476330009711 0 0 0
390 1 1 0 677.7425091601536 646.4496360187163 643.99667038746 0 0 0
391 1 1 0 678.9545893930887 646.3505181253047 643.3014932142437 0 0 0
392 1 1 0 675.4619741062411 643.2298756189572 640.8565297913678 0 0 0
393 1 1 0 676.2899274963421 642.0132126070297 640.9555279118806 0 0 0
394 1 1 0 678.0563596266018 644.6464138877474 641.8953527535557 0 0 0
395 1 1 0 678.3520366349491 643.5834452537289 641.1138052824664 0 0 0
396 1 1 0 679.1303874328555 645.5092842222926 642.2232973377414 0 0 0
397 1 1 0 680.3627116479618 645.0836117889185 641.7716622550377 0 0 0
398 1 1 0 634.0811074880069 675.3654213917613 674.5275667261272 0 0 0
399 1 1 0 637.1612432743696 657.5645856904532 660.1981891037585 0 0 0
400 1 1 0 648.2996725059078 681.036438216381 663.1186368330284 0 0 0
401 1 1 0 647.4132987186251 682.0309339004776 682.4246641988956 0 0 0
402 1 1 0 653.66610104984 675.7347826860175 664.921227147167 0 0 0
403 1 1 0 683.5358389882254 683.9055720400711 636.7308529820085 0 0 0
404 1 1 0 633.0115628404832 635.4469186905081 662.979143103302 0 0 0
405 1 1 0 643.3173549089323 642.5423953446985 683.2683210829172 0 0 0
2614 1 1 0 644.8599408082879 636.4951648860047 684.0372580202861 0 0 0
407 1 1 0 649.667404717806 652.6005525429754 683.5002503641842 0 0 0
408 1 1 0 645.0881523649145 681.0859271599919 679.8188632953601 0 0 0
409 1 1 0 636.5567316204895 674.9066836734361 633.925423241553 0 0 0
410 1 1 0 652.1901466431993 676.5352354802609 666.7503220546864 0 0 0
411 1 1 0 633.602818502115 659.0633523070646 657.3225002710485 0 0 0
412 1 1 0 662.8316148401685 654.128553753233 681.8326146605351 0 0 0
413 1 1 0 647.5301020947697 680.8613804455249 678.9443122416563 0 0 0
414 1 1 0 647.836673046953 641.8493259298722 634.6449012558618 0 0 0
415 1 1 0 638.9406263711293 634.3509639772207 672.1296639797903 0 0 0
3508 1 1 0 637.9996595368632 678.8218187107834 632.9289971493738 0 0 1
417 1 1 0 642.8746777994849 656.2358147376164 680.543222568598 0 0 0
418 1 1 0 667.1959057478031 652.2939835076463 676.7169933568722 0 0 0
419 1 1 0 643.3961198829938 653.9995883842344 680.781116511702 0 0 0
420 1 1 0 658.6612371261415 672.5739490229254 676.0228851148545 0 0 0
8887 1 1 0 641.3776893331592 632.7313251455547 678.7417011786517 0 1 0
6801 1 1 0 643.5459242096791 683.5545210991255 633.3044567093632 0 0 1
741 1 1 0 640.271713663567 633.0784303546337 676.0711258722247 0 0 0
424 1 1 0 639.952222699056 643.2744860617972 635.852086867844 0 0 0
425 1 1 0 659.9947379719288 678.1644161865714 673.9992706617444 0 0 0
426 1 1 0 653.6708537762024 676.8162257704886 665.9868718157791 0 0 0
1093 1 1 0 674.3537290124523 657.3254778516232 633.0348322697598 0 0 0