LAMMPS data file via write_data, version 2 Aug 2023, timestep = 50000, units = metal

35556 atoms
1 atom types

632.1839398024299 740.5040591975664 xlo xhi
632.5660934292524 740.8309055707394 ylo yhi
632.5333380467197 740.8636609532722 zlo zhi

Masses

1 12.0107

Atoms # full

1 1 1 0 634.8807505716483 644.9282836940489 654.0987539018538 0 0 0
9433 1 1 0 634.8362419409585 633.2881575971926 637.757416355112 0 1 0
3 1 1 0 666.2436254131063 650.1898057122196 685.3440244775538 0 0 0
2274 1 1 0 685.5733178029585 673.8266266126755 653.2482684938882 0 0 0
5 1 1 0 681.212875247886 637.3610038698063 634.2007526618896 0 0 0
6 1 1 0 635.7091850624995 659.9096348302172 634.7498897418134 0 0 0
7 1 1 0 633.8391779820643 683.2558031262091 685.821789394684 0 0 0
4089 1 1 0 632.289978105597 644.7632699531689 653.0533519885853 0 0 0
9 1 1 0 636.8978771098107 671.9214470303912 681.4720128434402 0 0 0
10 1 1 0 682.0147728794749 648.1464716918641 644.0300341194107 0 0 0
11 1 1 0 684.06807612584 654.2855686143829 634.0520310117079 0 0 0
12 1 1 0 635.4793912977786 662.3578822687399 634.9904480113947 0 0 0
13 1 1 0 633.8333074393234 677.8880305286236 663.9729068643089 0 0 0
9566 1 1 0 641.0245953418319 633.1808965548214 634.5026648030888 0 1 0
15 1 1 0 682.455927462017 658.7419234264809 657.2589155164162 0 0 0
16 1 1 0 634.3988430179619 672.0215554248682 678.8482462933241 0 0 0
4760 1 1 0 649.2860434732406 680.927299251782 632.6350552917199 0 0 1
18 1 1 0 674.6718946046468 634.2012348128878 661.8281950272299 0 0 0
19 1 1 0 683.3662115204783 633.20097199986 634.3704576996274 0 0 0
20 1 1 0 633.7597090224558 679.804130971495 676.5621886893916 0 0 0
21 1 1 0 673.3324554752573 635.0664213332602 660.2047588217088 0 0 0
22 1 1 0 638.6872110740272 666.2124646183528 638.6571137461306 0 0 0
23 1 1 0 674.1709068750217 635.377696927643 661.2947651123652 0 0 0
24 1 1 0 658.3683884446044 685.9556078266838 677.9574308887655 0 0 0
25 1 1 0 666.8800525360546 633.0649993993339 642.5573449266362 0 0 0
26 1 1 0 638.3284968164945 667.1468468721432 639.5731392107866 0 0 0
27 1 1 0 685.119182138956 637.6842613082566 670.5405537231392 0 0 0
28 1 1 0 636.323915003351 669.4764196546037 642.4179655977499 0 0 0
29 1 1 0 636.1265004965597 670.9432286680676 633.6538139786231 0 0 0
30 1 1 0 659.1615218320338 681.8352885378081 676.3095293283324 0 0 0
31 1 1 0 635.7935870599874 648.1025571464357 677.2753069920227 0 0 0
4093 1 1 0 661.7401236209292 686.4433890371888 652.3820551804226 0 0 0
33 1 1 0 663.0966717670145 684.0661553708557 677.9661291904265 0 0 0
34 1 1 0 672.410112822297 684.0918411561488 660.6122990131609 0 0 0
1625 1 1 0 632.4773388993038 671.175002959227 645.7859800182927 0 0 0
36 1 1 0 681.1916604613992 650.2114770338871 634.1384658364763 0 0 0
37 1 1 0 666.1224844938287 660.067913158133 635.1572354301278 0 0 0
38 1 1 0 633.7748037449163 677.7476926910681 652.7918975797833 0 0 0
39 1 1 0 658.7526157413764 635.0535988296847 682.9565041494274 0 0 0
9724 1 1 0 677.0220648160475 685.9613123737054 671.0316227457903 0 0 0
41 1 1 0 681.0306973804486 648.9722412984211 634.715889531974 0 0 0
42 1 1 0 663.2236350746002 681.2864577627515 686.1485296073939 0 0 0
43 1 1 0 648.7631499595338 670.0126799328835 682.0201551959852 0 0 0
1100 1 1 0 632.8637959322937 679.1597449269888 648.9526347747067 0 0 0
238 1 1 0 632.4384704071538 678.4133092810226 646.5959790293158 0 0 0
46 1 1 0 636.4880797521655 667.5436667482197 641.0751758707959 0 0 0
47 1 1 0 678.9514186556817 653.3609560185447 635.5490599650602 0 0 0
4097 1 1 0 652.1727269502846 686.4251036032642 673.5548811537753 0 0 0
49 1 1 0 634.2963764538654 679.3283963243218 674.3334891233227 0 0 0
50 1 1 0 635.9672422968926 634.2173610277649 634.3943402816864 0 0 0
51 1 1 0 633.8241941169334 675.7964999653715 678.1441177943867 0 0 0
52 1 1 0 665.3403232469748 657.6514887302282 633.7508436781483 0 0 0
53 1 1 0 652.0715526338133 635.7127651370361 635.248999650941 0 0 0
54 1 1 0 682.7813971133265 653.9976038471253 634.3715066492822 0 0 0
55 1 1 0 633.4989626733148 650.564363109304 668.3748896493312 0 0 0
56 1 1 0 639.4736591922274 646.547122103296 650.5728263259408 0 0 0
57 1 1 0 633.9621732894059 679.2291761771488 664.2064869058338 0 0 0
58 1 1 0 651.564047881912 679.1459937205761 637.4558071180256 0 0 0
59 1 1 0 667.0237258166316 661.1365624762908 635.429748055253 0 0 0
60 1 1 0 641.6838089650225 673.6283139347009 643.162976659809 0 0 0
61 1 1 0 634.7966450084732 676.7761030441843 678.3042206713434 0 0 0
62 1 1 0 634.5227006744601 678.8024910315243 669.970948836094 0 0 0
63 1 1 0 636.8127080360321 671.8590946152257 635.8733942410541 0 0 0
64 1 1 0 641.9319306314686 670.9366559444314 683.5870837391108 0 0 0
18261 1 1 0 633.0016373704703 675.0719712737972 666.9530085835904 1 0 0
66 1 1 0 683.7844262559753 646.722794134086 633.5640305956758 0 0 0
67 1 1 0 681.9587782338424 633.5372132907759 634.4549644686089 0 0 0
68 1 1 0 638.7593152517337 645.6699746178898 651.438316462836 0 0 0
1755 1 1 0 663.3993703411963 632.6407477005769 639.740233357182 0 0 0
70 1 1 0 653.8359490109292 681.9862311676452 677.041812748549 0 0 0
71 1 1 0 665.9802283265105 658.6204224160956 635.8836327704006 0 0 0
9535 1 1 0 653.7311306309233 632.7222292760513 655.3609309006096 0 1 0
488 1 1 0 671.5605966545385 633.0741782811398 636.3257024448225 0 0 0
74 1 1 0 653.1626802375073 637.7891023139716 634.3685020458806 0 0 0
75 1 1 0 660.6158719439426 680.7890784592422 677.9986133376715 0 0 0
8880 1 1 0 675.608190294334 686.0740264334414 666.5933069960744 0 0 0
77 1 1 0 672.5304063888273 681.9140737357785 676.7532462561137 0 0 0
78 1 1 0 657.0934766349642 683.7731314700968 676.5072853714385 0 0 0
79 1 1 0 646.4397280909938 670.6177292450153 682.7497947639291 0 0 0
80 1 1 0 661.5643549066743 685.2089760050281 676.48556852085 0 0 0
571 1 1 0 640.0788158880356 633.0795085843514 685.5416494719368 0 0 0
82 1 1 0 633.5738457891264 634.2554779803157 634.8555186971464 0 0 0
83 1 1 0 633.3625603528917 635.2512147860887 633.9803072658274 0 0 0
84 1 1 0 679.3948254853395 649.9661769679433 636.370140906038 0 0 0
85 1 1 0 673.3524897219493 633.6791260856825 634.8248188018238 0 0 0
86 1 1 0 671.1895965535482 655.9987461202775 638.2939387949906 0 0 0
87 1 1 0 635.2155662784057 633.202316829493 682.4697538297246 0 0 0
88 1 1 0 640.5575074462092 672.6704388423408 640.8714055352285 0 0 0
89 1 1 0 683.0673377997057 637.9870141907842 635.491528570325 0 0 0
90 1 1 0 637.8715215488833 658.1178028109643 633.1640699738001 0 0 0
91 1 1 0 685.7080639168622 644.7173185148386 643.3444253097019 0 0 0
92 1 1 0 636.1753806999716 633.3227273154516 651.991348589718 0 0 0
93 1 1 0 634.4378184156119 634.2841873956203 653.4035158805533 0 0 0
4921 1 1 0 666.5264483850251 655.4833111056989 686.5103280700287 0 0 0
95 1 1 0 682.579908855596 673.949077016204 655.5305027441069 0 0 0
96 1 1 0 637.7057266400514 669.4081969585895 640.2146714667913 0 0 0
97 1 1 0 637.2712794803272 663.1399865955447 636.4320974497402 0 0 0
98 1 1 0 639.1291658919677 662.5428602670765 638.4334653643239 0 0 0
99 1 1 0 638.4872021232708 661.4857793174546 637.7947414150879 0 0 0
100 1 1 0 637.4189011054688 657.6040857068525 636.9460491559793 0 0 0
101 1 1 0 645.9348472116687 680.8747171310566 670.9193026623884 0 0 0
102 1 1 0 650.5704061795456 684.5222277255286 673.4132564510338 0 0 0
103 1 1 0 642.3369813799571 681.6160241639861 671.1185752973641 0 0 0
104 1 1 0 636.3282930574143 660.9617804167647 636.8146263847732 0 0 0
105 1 1 0 662.0806166449663 633.1421723312827 633.6524314440877 0 0 0
106 1 1 0 634.0496568708015 669.1539357362514 641.2866623153699 0 0 0
107 1 1 0 676.6845861268712 635.2827021322079 664.8101725519499 0 0 0
108 1 1 0 637.4119828941828 665.3121879239958 640.8605644443674 0 0 0
109 1 1 0 636.2194354572326 645.5273003229976 655.9533288156794 0 0 0
110 1 1 0 637.2428221545512 659.7437835245195 638.6342124956841 0 0 0
111 1 1 0 673.347214893403 681.9289205653876 685.212666855582 0 0 0
112 1 1 0 673.4634282386372 679.7990291204709 682.1029018623238 0 0 0
113 1 1 0 673.2514556334096 680.067787876975 683.505295377894 0 0 0
114 1 1 0 672.0240981958317 681.0222594653809 680.337256888817 0 0 0
115 1 1 0 634.728771715095 675.1081359327982 684.7465026531434 0 0 0
116 1 1 0 638.5724112200284 660.2710266332497 638.4771600956828 0 0 0
117 1 1 0 634.4328511666503 653.0518674306213 669.4207179211721 0 0 0
118 1 1 0 636.2140694858996 669.6640104801849 634.2381881515837 0 0 0
119 1 1 0 637.7358584670088 671.155685867346 638.4602344282167 0 0 0
120 1 1 0 665.0751757447699 633.4180532012479 652.8048589426825 0 0 0
9099 1 1 0 673.070603573357 632.817508169188 633.8267828225897 0 1 0
122 1 1 0 639.2982706470299 673.3846048557917 640.9734229690091 0 0 0
123 1 1 0 661.4291481339361 634.7794828148741 682.9816828750719 0 0 0
124 1 1 0 672.7027914482568 682.8724048447532 674.5691180416699 0 0 0
125 1 1 0 643.1073353110544 645.835192957892 685.3423608182035 0 0 0
126 1 1 0 678.3086119761424 638.4819212116873 665.5110230989867 0 0 0
127 1 1 0 681.4834509952667 648.6252101800417 651.1946254276583 0 0 0
128 1 1 0 639.2450311044681 662.2947801759019 639.8682022683853 0 0 0
129 1 1 0 638.2415055374564 668.4942039990898 639.2667206065736 0 0 0
130 1 1 0 638.4323233179423 663.15329251022 640.6334069636406 0 0 0
131 1 1 0 633.1379232861794 676.3794039666088 667.394391380285 0 0 0
132 1 1 0 677.8237335259334 678.2423724400232 682.654247483843 0 0 0
133 1 1 0 667.7758152540582 657.8287591785819 633.7445143485993 0 0 0
1216 1 1 0 658.5663481735025 633.026033123033 633.6787420050409 0 0 0
1073 1 1 0 632.3243389538442 675.0136003193471 671.9912853968036 0 0 0
136 1 1 0 636.5237382616472 658.8930638865473 635.1927895991703 0 0 0
137 1 1 0 671.2043099983075 682.0889251036851 680.6191553952591 0 0 0
138 1 1 0 676.6732882424075 654.0512737549993 635.697184362149 0 0 0
139 1 1 0 663.8920648209469 634.0050977405085 652.1930691611866 0 0 0
140 1 1 0 635.2961044648501 634.4921034663018 652.2556050213537 0 0 0
141 1 1 0 684.2791191294193 659.7928107308198 658.3954269657846 0 0 0
142 1 1 0 673.1723565225587 633.7024493435177 660.1104382268384 0 0 0
143 1 1 0 661.2885221316137 633.6757978606846 683.7636850249199 0 0 0
4099 1 1 0 662.3775845524468 632.6428289142469 641.8957034185032 0 0 0
1058 1 1 0 666.6015172079069 686.5210965869162 654.0463161988686 0 0 0
146 1 1 0 672.2608161504012 683.057219505776 685.6199912761076 0 0 0
3683 1 1 0 632.4483929609277 640.4868037038715 652.928561655281 0 0 0
148 1 1 0 635.3652535549642 681.692174450927 676.1950961399334 0 0 0
149 1 1 0 633.3164555900615 670.2096032971278 640.600642746299 0 0 0
150 1 1 0 674.8989959785191 679.528932775059 681.9119953567505 0 0 0
151 1 1 0 676.4127889643589 643.8042759981909 643.1341521449938 0 0 0
152 1 1 0 677.2721690948808 643.8397282276051 641.9596742333842 0 0 0
153 1 1 0 674.9905620537522 643.891516189406 643.1252065421345 0 0 0
154 1 1 0 674.4344011562888 642.557347217796 643.429018753918 0 0 0
155 1 1 0 677.3534304184552 642.6552870729143 641.1670574494987 0 0 0
156 1 1 0 675.0638788196873 641.1737138365544 641.7286619753243 0 0 0
157 1 1 0 673.5095061024499 640.1546147912541 643.8542099272906 0 0 0
158 1 1 0 674.4296423966636 641.2951890454823 642.9851620456509 0 0 0
159 1 1 0 672.6743791685673 639.1390410933709 644.8965356808336 0 0 0
160 1 1 0 671.586830213651 638.4860783316889 644.2664984686363 0 0 0
161 1 1 0 670.1544731418667 637.6251716676204 645.9593055617295 0 0 0
162 1 1 0 670.6436387667388 637.5478218747271 644.6669323957344 0 0 0
163 1 1 0 669.3050614689073 636.6712109637231 646.552450308939 0 0 0
164 1 1 0 668.5856742670821 635.7802447196351 645.6943747782924 0 0 0
165 1 1 0 666.6613987564201 634.9839627675094 647.3709389438626 0 0 0
166 1 1 0 667.3255704588503 635.0469610234951 646.0217838236285 0 0 0
167 1 1 0 665.3702524551775 634.2921999136544 647.2777854105408 0 0 0
168 1 1 0 664.6646851765696 633.8547555287307 646.0437256669549 0 0 0
169 1 1 0 672.7566315064877 639.4936145303404 642.6122315673775 0 0 0
170 1 1 0 671.7350659186787 638.5848112716109 642.9103600224022 0 0 0
171 1 1 0 670.0189235382995 636.6074070611096 643.863764065393 0 0 0
172 1 1 0 669.0113124132172 635.7438618241806 644.2959992232753 0 0 0
173 1 1 0 666.7490791120044 634.2231599737115 644.893567351775 0 0 0
174 1 1 0 665.3755785210274 633.9314525035835 644.8520679324283 0 0 0
175 1 1 0 643.7656212832807 681.6919602647671 671.5485943695452 0 0 0
176 1 1 0 674.3414546497489 640.2939804369461 640.9196398089451 0 0 0
177 1 1 0 676.2690101806068 657.4131673791743 634.0065577781022 0 0 0
4068 1 1 0 632.7779773386301 675.6655116292775 669.6979364161102 0 0 0
179 1 1 0 674.8302015539236 640.276443468598 639.6441779856247 0 0 0
180 1 1 0 674.3200999881868 639.4116370191808 638.7282680001596 0 0 0
181 1 1 0 662.7009759043412 633.5812249154324 652.7488202847168 0 0 0
182 1 1 0 634.6964144594833 663.8320513161876 633.2632374346801 0 0 0
183 1 1 0 661.6193208696184 680.8831710757805 678.9437617243561 0 0 0
184 1 1 0 665.1905748147452 685.9678620472463 682.7533461486422 0 0 0
185 1 1 0 633.6465626505361 678.5854462993257 655.3906396018718 0 0 0
4096 1 1 0 632.6161079977572 651.2291261370311 670.6360632355735 0 0 0
187 1 1 0 650.7276535116166 637.1717596122252 633.6750420774337 0 0 0
188 1 1 0 673.2705462232966 639.4756203217528 641.3425029247452 0 0 0
189 1 1 0 671.1395724038736 637.7663543474576 641.9819988762778 0 0 0
190 1 1 0 670.3226887293171 636.6955192126301 642.4531442760201 0 0 0
191 1 1 0 668.5384720317933 634.7740043946943 643.3746336393395 0 0 0
192 1 1 0 667.4243632637832 633.9530829965057 643.6803131554859 0 0 0
193 1 1 0 634.6976357426378 662.5180037587841 633.7999721204066 0 0 0
194 1 1 0 672.7665939755743 638.5497220646627 640.3649441583717 0 0 0
195 1 1 0 673.3634962321571 638.4573162422171 639.1019601302249 0 0 0
196 1 1 0 671.8066633101089 637.6113792769254 640.7095252000165 0 0 0
197 1 1 0 671.4246586175966 636.6173324514106 639.8437876284863 0 0 0
198 1 1 0 669.9166303064928 635.7183082239876 641.5739526605643 0 0 0
199 1 1 0 670.5019189463518 635.617090584458 640.2602322235194 0 0 0
200 1 1 0 669.0925805782554 634.7268464138135 642.0777589935216 0 0 0
201 1 1 0 668.809869372928 633.6668508892775 641.2014587103575 0 0 0
202 1 1 0 639.4984471992757 677.1027748376266 677.0219992653285 0 0 0
203 1 1 0 679.6446341793726 648.5595774031185 652.7198817901447 0 0 0
204 1 1 0 680.1305440314127 648.1199462797337 651.3781579491842 0 0 0
205 1 1 0 637.5299681253432 670.714721719355 639.7715130798772 0 0 0
206 1 1 0 673.1272661456978 637.3987303720504 638.2475773998327 0 0 0
207 1 1 0 641.3243671061646 681.8651170374812 672.1081908188416 0 0 0
208 1 1 0 672.1520708254437 636.463029318062 638.6230100076804 0 0 0
209 1 1 0 671.9011866258645 635.355437054403 637.8326615029373 0 0 0
210 1 1 0 670.3774376855588 634.4603301972099 639.4902807429016 0 0 0
211 1 1 0 680.6989012276433 641.2419792597847 636.437872602003 0 0 0
212 1 1 0 636.8398927949727 681.0468547423574 673.9811034909409 0 0 0
213 1 1 0 675.3991087288717 634.3046117082713 663.0082657064972 0 0 0
214 1 1 0 670.1356042082226 634.4365941813112 659.9594422398616 0 0 0
215 1 1 0 640.1700531738916 657.4067415729444 637.6821069204395 0 0 0
216 1 1 0 636.1714597011237 664.724246685458 641.1596911392542 0 0 0
217 1 1 0 658.128341422222 641.9665582887135 680.7577563811311 0 0 0
218 1 1 0 641.7055552823308 681.2608057139942 673.2598515877197 0 0 0
219 1 1 0 675.7834346249806 656.6172807858213 635.1511542948048 0 0 0
220 1 1 0 635.1999747905044 667.0181844014435 641.0982965317561 0 0 0
221 1 1 0 633.7220183971652 634.0379380041611 638.1422201290254 0 0 0
222 1 1 0 679.4967083733517 644.7414961356113 643.3637506658334 0 0 0
223 1 1 0 656.5808643314608 651.6197988607571 680.3624247316194 0 0 0
224 1 1 0 658.7175214126116 653.700918010305 682.50531897759 0 0 0
225 1 1 0 657.6303574740996 652.5327060238766 680.6945210179607 0 0 0
226 1 1 0 647.8364998515291 680.1411006024092 674.4220848261133 0 0 0
227 1 1 0 648.0082893622122 678.9451085996297 676.8996067064793 0 0 0
12629 1 1 0 662.398461930689 633.1945677946546 684.465339720495 0 1 0
229 1 1 0 678.3217024686538 654.8723124070347 633.8593439727512 0 0 0
230 1 1 0 656.628084650847 651.0218082059044 679.1247796667168 0 0 0
231 1 1 0 655.7883309654922 649.1664683644378 677.8979805694755 0 0 0
232 1 1 0 640.281136525785 658.7337998992913 639.8807288396632 0 0 0
233 1 1 0 649.2539030016238 679.6953692341654 674.9724255107487 0 0 0
234 1 1 0 655.2846568102054 634.8804363543912 633.1873874072521 0 0 0
853 1 1 0 668.5207673148584 685.9518559093688 679.4942527880564 0 0 0
236 1 1 0 666.2711501626933 659.8192188914361 633.1847950709729 0 0 0
237 1 1 0 672.4452645243956 655.8932535852807 634.0401444710093 0 0 0
4105 1 1 0 686.2497620570913 653.4487488239115 633.4760687842223 0 0 0
239 1 1 0 639.2603391344305 676.9043812915916 684.7288317881494 0 0 0
240 1 1 0 682.5744976688575 646.7721204505833 642.2909040670758 0 0 0
241 1 1 0 650.644388111626 678.4768923466135 638.3470100004573 0 0 0
242 1 1 0 680.4747103808825 635.2838642733648 633.5563064889872 0 0 0
243 1 1 0 683.0503730373305 672.8876837163673 656.3828963257554 0 0 0
244 1 1 0 680.4933985023033 650.5421457427549 649.2856495354785 0 0 0
245 1 1 0 685.056730846297 674.5519428409901 649.7122285269535 0 0 0
246 1 1 0 678.1262192172345 636.3133106893944 634.5319121266833 0 0 0
247 1 1 0 642.8005464507056 675.1404598982277 639.0082059053433 0 0 0
248 1 1 0 680.7865071202345 644.8572043797344 644.4331477062341 0 0 0
249 1 1 0 633.0065513801887 673.3833932343431 677.5714337000886 0 0 0
250 1 1 0 684.8827177955566 673.9438399387462 654.4388576037836 0 0 0
251 1 1 0 657.5196057616853 652.0027748085183 684.232424607218 0 0 0
252 1 1 0 647.8940335510297 683.9255286951661 671.1006167593403 0 0 0
253 1 1 0 675.9976556672995 655.5524884478555 636.0508821803292 0 0 0
254 1 1 0 652.2657424775041 645.9156347501772 680.3791859281843 0 0 0
514 1 1 0 642.5782829864465 633.1558485615236 682.4197226579936 0 0 0
256 1 1 0 640.8558650483003 673.5490007301825 638.000797235115 0 0 0
257 1 1 0 675.2186502655117 683.8156647269577 659.0688121513023 0 0 0
258 1 1 0 638.1830280978523 633.6215698820403 633.5124055819145 0 0 0
259 1 1 0 647.8973035077837 670.6671488636812 683.0371036866026 0 0 0
260 1 1 0 669.3203354188186 661.186045805367 636.4457297136114 0 0 0
261 1 1 0 664.4709542147847 660.2124544538818 637.0406393436664 0 0 0
262 1 1 0 634.0066902578413 681.3070990458283 665.3038777480756 0 0 0
263 1 1 0 667.0411872631901 661.4067101724121 636.9824203662165 0 0 0
264 1 1 0 676.0249037116528 637.5150619190583 636.1234164399818 0 0 0
265 1 1 0 645.3283626975119 655.0823983127837 634.9104690052726 0 0 0
266 1 1 0 682.34915248369 649.0465326477574 650.121981549738 0 0 0
267 1 1 0 637.4854392907163 666.6749595919789 640.6151904626545 0 0 0
268 1 1 0 644.2125918905925 673.1310337681525 685.4100101899245 0 0 0
269 1 1 0 679.0985036163078 643.7952167050748 638.1869933837872 0 0 0
270 1 1 0 670.6724859325063 683.8287803454497 677.4168374860848 0 0 0
271 1 1 0 634.8214546051723 634.3921201033655 679.7799337526742 0 0 0
272 1 1 0 672.9441707675257 654.8414517441265 639.3124533713753 0 0 0
273 1 1 0 641.201124621357 635.099255582998 682.124999377357 0 0 0
4186 1 1 0 647.4480167628543 684.6555223092143 633.0692737282852 0 0 0
275 1 1 0 669.9581905548041 684.9474680651274 656.2757207742934 0 0 0
276 1 1 0 662.8093371247257 679.9761928687017 686.0580916911389 0 0 0
277 1 1 0 670.9939516320375 678.7131243618608 683.0981908527624 0 0 0
278 1 1 0 638.3746163118227 666.5656586229342 637.3150982075197 0 0 0
279 1 1 0 634.0769120462289 667.8566564008675 640.7466493924791 0 0 0
280 1 1 0 635.1972423742386 682.7170006618635 679.060663908895 0 0 0
281 1 1 0 659.4604143996847 640.3459373807191 677.9765849163731 0 0 0
282 1 1 0 662.7933647958392 635.7642766539252 680.1472740935288 0 0 0
283 1 1 0 660.0175942470095 640.6817449643886 681.7152206140833 0 0 0
284 1 1 0 660.9296467284249 637.0600821772488 677.6371450676311 0 0 0
285 1 1 0 639.387902393578 677.501272423937 671.2821386858435 0 0 0
286 1 1 0 669.8738056901288 684.9787147351466 677.7360308547436 0 0 0
287 1 1 0 678.8744774450968 677.0820012402562 684.4602001937128 0 0 0
288 1 1 0 653.0887694666217 636.7299712287501 635.3461758841594 0 0 0
289 1 1 0 633.3109427141974 676.2355138921721 662.3853704086482 0 0 0
290 1 1 0 681.721934212862 647.7807924231109 634.3802659204645 0 0 0
291 1 1 0 668.5195471147431 657.1061186568072 640.1499594901173 0 0 0
292 1 1 0 634.1090476805425 682.2038993305705 683.5977685239167 0 0 0
293 1 1 0 668.9920527339325 656.2452646270059 639.1220163212051 0 0 0
294 1 1 0 644.3344914910714 656.0353520031811 635.0682147978213 0 0 0
94 1 1 0 680.7942205332486 636.6677516842497 633.1210082847663 0 0 0
296 1 1 0 675.9265717028841 641.1537957172623 639.5333755188901 0 0 0
297 1 1 0 680.161589329591 638.9408678047306 667.275220870993 0 0 0
298 1 1 0 682.9893441539732 656.3364274035138 656.9119401015 0 0 0
299 1 1 0 668.5535150439505 660.6776418771137 640.3595789574626 0 0 0
300 1 1 0 659.3950448723862 684.0112630241921 677.1097410009277 0 0 0
301 1 1 0 678.6014787749418 652.1208562959141 636.0315947022848 0 0 0
302 1 1 0 633.0459542752113 679.9233037997167 662.0011064999277 0 0 0
303 1 1 0 672.6257706159529 635.1935552623171 636.658530895565 0 0 0
304 1 1 0 668.8287974112469 638.921229055481 649.9012922501205 0 0 0
305 1 1 0 638.0960353067215 667.8892092735795 636.8957507578272 0 0 0
306 1 1 0 634.3165621949572 646.9002906437496 655.3231804654876 0 0 0
307 1 1 0 680.4668740754348 675.0984383992537 684.2488649869671 0 0 0
4222 1 1 0 654.1060224395061 652.8592932213545 633.2201842029084 0 0 1
309 1 1 0 639.1028701478732 678.6423480141939 670.3136219117418 0 0 0
310 1 1 0 682.0949403121724 636.9743166427226 635.2023715734271 0 0 0
311 1 1 0 658.5895114155151 683.0681444141399 676.3843921001277 0 0 0
312 1 1 0 637.0566926764426 679.6611144237849 669.1343789617047 0 0 0
313 1 1 0 662.6348926336995 681.8237151001429 681.3669414682789 0 0 0
314 1 1 0 637.6477379553322 678.7281201536107 670.0583603815805 0 0 0
315 1 1 0 678.9554125689724 677.5461231262343 683.1504978452986 0 0 0
316 1 1 0 670.021147711075 656.2069566061969 634.4744135319071 0 0 0
317 1 1 0 671.1219967728115 684.578916018058 673.8680738640771 0 0 0
2293 1 1 0 632.6039383561097 670.1103519097334 681.5134836674426 0 0 0
319 1 1 0 680.1274627213733 674.0619056754267 659.7028157601125 0 0 0
320 1 1 0 661.6757118744862 640.6118142653371 684.9069274880437 0 0 0
321 1 1 0 647.7380024684277 683.3105217285065 635.0610798538949 0 0 0
322 1 1 0 670.0195557680713 635.3349329206881 651.5610902613817 0 0 0
323 1 1 0 675.4742216968456 652.4932770413642 640.6260505987517 0 0 0
324 1 1 0 657.4614748636548 683.7044468988845 678.0654311892985 0 0 0
325 1 1 0 634.8498523304619 675.6340302011376 675.9081807281619 0 0 0
326 1 1 0 653.0943852370361 682.5212398691101 675.9955234520841 0 0 0
327 1 1 0 635.8969281387083 676.5265605092699 676.2607507674466 0 0 0
328 1 1 0 634.5033463471949 682.5529459536968 671.2226719054495 0 0 0
329 1 1 0 684.9467655832811 647.3854195771665 647.009280567303 0 0 0
330 1 1 0 639.1796534699682 673.9032104536375 639.6570151616241 0 0 0
331 1 1 0 636.9659080583892 680.9654663361765 669.732123632675 0 0 0
332 1 1 0 634.1878490548598 679.9123123556169 680.8660674358152 0 0 0
333 1 1 0 669.3960178645532 685.4383064582582 675.3385778932093 0 0 0
4079 1 1 0 667.7063194175962 686.0142216592736 654.7530926539973 0 0 0
6169 1 1 0 657.8855156850279 655.8641864122923 632.8644917248442 0 0 1
336 1 1 0 648.3809337805279 672.0099771397071 683.3004060813661 0 0 0
1099 1 1 0 677.3309476068895 638.2772336723624 633.1434433084906 0 0 0
338 1 1 0 665.8196170749218 685.602351982433 653.3352092077289 0 0 0
339 1 1 0 634.6230008383104 634.95840094628 651.0692455867838 0 0 0
17 1 1 0 678.4216687563309 685.9058977944619 666.0685063845982 0 0 0
341 1 1 0 682.5588094107277 655.2302321113178 656.1105098462044 0 0 0
342 1 1 0 633.2374246704654 648.0220310185568 657.1695081209282 0 0 0
343 1 1 0 654.9152602633379 683.9849330147782 675.3066025928761 0 0 0
344 1 1 0 633.0734757363642 677.5654807497426 666.379877177239 0 0 0
345 1 1 0 657.2537588672743 682.3168201925472 680.040095829967 0 0 0
346 1 1 0 685.5968892723746 673.9777507509635 650.8492712333677 0 0 0
347 1 1 0 633.9384027012424 645.9486335103346 654.286464748834 0 0 0
348 1 1 0 658.889677425683 633.6243054629344 683.2708711406003 0 0 0
349 1 1 0 637.6292967698098 634.0964402070719 656.5650329792828 0 0 0
350 1 1 0 671.8252281465002 684.6959460429297 658.0496890378506 0 0 0
351 1 1 0 646.4451786536886 647.0432906339333 685.1874677563928 0 0 0
352 1 1 0 682.9710621583017 652.9884263123529 655.4475875300227 0 0 0
353 1 1 0 663.55271347432 634.8796799450995 676.7717372096512 0 0 0
69 1 1 0 663.8075245929318 650.6127438705676 686.0384224031628 0 0 0
355 1 1 0 667.5853769579595 633.4584132056796 653.1967022154334 0 0 0
18197 1 1 0 685.9374562104522 633.070928989288 670.9066719945041 0 0 0
357 1 1 0 672.5595448208511 655.663839594097 638.320198843806 0 0 0
18578 1 1 0 632.2993498731809 684.4862162441266 672.3508761603699 1 0 0
359 1 1 0 666.3338997602706 633.8491230867469 652.5151934150082 0 0 0
360 1 1 0 676.1546937308357 681.0038400815862 685.1195978602559 0 0 0
361 1 1 0 633.3962133702153 675.7593466157612 661.064505890869 0 0 0
362 1 1 0 637.1195685230725 671.6067481453874 685.1605390712311 0 0 0
20423 1 1 0 632.5651001968425 674.3636141271006 669.275314830986 1 0 0
364 1 1 0 684.3883105149208 652.4497353863641 657.6708957086596 0 0 0
365 1 1 0 679.9383286215364 642.6927421770935 640.9149433208285 0 0 0
366 1 1 0 678.580851926858 642.5945149056756 640.3301104792973 0 0 0
367 1 1 0 681.0325269383824 643.5516199091176 641.1229651194733 0 0 0
368 1 1 0 681.2322681635018 644.5671998585777 640.1083940129224 0 0 0
369 1 1 0 683.5885185418485 644.424068527404 639.4503862440696 0 0 0
370 1 1 0 682.3743217022926 645.2170323802292 639.5370872096364 0 0 0
371 1 1 0 684.3230585509469 644.3808837957217 638.1659705035186 0 0 0
372 1 1 0 682.0277239780291 644.8306291177394 636.9748786166083 0 0 0
373 1 1 0 684.8150152611191 643.6215395208565 635.2921649270669 0 0 0
374 1 1 0 683.9316437696816 644.0475089043887 634.0183388354906 0 0 0
375 1 1 0 684.3330456141944 644.1293731837947 636.4885095645169 0 0 0
376 1 1 0 683.2323873270544 645.1920359007535 636.2107062748839 0 0 0
377 1 1 0 669.3959047827584 661.4663743365288 635.1071277992169 0 0 0
378 1 1 0 684.3857707197336 646.1903888332834 636.4829930176304 0 0 0
379 1 1 0 652.48147878886 644.5217867330538 680.4377290098647 0 0 0
380 1 1 0 645.0274505902407 675.676666732636 637.2787027684857 0 0 0
381 1 1 0 663.785982322983 659.8688225169407 634.3926712849324 0 0 0
382 1 1 0 648.5372116795021 677.2605261445439 638.7584170510191 0 0 0
383 1 1 0 655.2700776100163 683.9926496272973 650.1262586267187 0 0 0
384 1 1 0 682.2680549844499 652.6982940182785 634.202361136249 0 0 0
385 1 1 0 678.9173417945264 645.0767298578744 638.8433747023739 0 0 0
386 1 1 0 677.7726372229852 641.774314296711 638.0856950257399 0 0 0
387 1 1 0 679.9909755934618 645.3716838743087 639.8298272218378 0 0 0
388 1 1 0 679.9193212477296 646.7996857509719 640.0519598567014 0 0 0
389 1 1 0 681.927174393936 646.4500161498976 638.8187488866733 0 0 0
390 1 1 0 680.9637149432696 647.4065156596879 639.2751419706946 0 0 0
391 1 1 0 681.4995363324103 646.007290726233 637.5304238306367 0 0 0
392 1 1 0 681.1308091906359 646.916614161066 636.5484352974846 0 0 0
393 1 1 0 682.4441920978302 645.6338547395404 635.0525076806682 0 0 0
394 1 1 0 677.9763094842423 640.658714395619 635.9399299145114 0 0 0
395 1 1 0 683.2749154834038 645.453499546225 633.9539869188845 0 0 0
396 1 1 0 683.0753265883291 647.3913132019429 643.4710655671738 0 0 0
397 1 1 0 678.9743092557391 640.2907084778426 635.0371057849799 0 0 0
398 1 1 0 672.824760128661 683.0538103608255 659.7019783919463 0 0 0
399 1 1 0 635.2232894817217 664.9443754622356 633.9994693784034 0 0 0
400 1 1 0 678.5116692019667 678.7706673517524 658.5887669270962 0 0 0
401 1 1 0 637.7623088251801 670.2007224735751 637.4741487241527 0 0 0
402 1 1 0 636.1173062861782 664.7220104154413 635.0503074608923 0 0 0
403 1 1 0 671.0675311640409 684.4105366546779 656.8500962550306 0 0 0
462 1 1 0 685.5804249561181 669.307893753947 658.0561551877995 0 0 0
405 1 1 0 678.4251782146401 642.7155752342896 638.8548922544225 0 0 0
406 1 1 0 677.983718814123 646.202792397458 639.1508094964806 0 0 0
407 1 1 0 678.5797279465244 647.333025146558 639.8287743126396 0 0 0
408 1 1 0 679.7486499821463 673.9718680433942 658.3425706210384 0 0 0
861 1 1 0 670.8777723011017 633.2238354801431 637.5149846655877 0 0 0
410 1 1 0 679.7714512230325 676.460398402672 659.8013755410515 0 0 0
411 1 1 0 632.7363871759467 649.5020283736097 661.3078359205201 0 0 0
412 1 1 0 679.17293262457 677.4607531988897 660.5877100931218 0 0 0
413 1 1 0 635.4086764781098 652.0392544677452 669.4350309998788 0 0 0
414 1 1 0 676.4949485083349 677.923621434365 661.0221750274048 0 0 0
8013 1 1 0 660.8544007430952 656.7157402525779 632.5823098084203 0 0 1
416 1 1 0 675.3820684199237 677.9768679243975 660.1316072582312 0 0 0
417 1 1 0 680.286347115767 651.9368147110407 652.6532807520456 0 0 0
134 1 1 0 666.4614815709072 686.5570797813235 682.5762429495718 0 0 0
419 1 1 0 676.5340508372198 681.9305886287345 658.5628688858329 0 0 0
420 1 1 0 675.4091109732909 680.3664793059447 660.4317561715249 0 0 0
421 1 1 0 636.8179218819689 669.4221588623972 635.4462672000097 0 0 0
422 1 1 0 661.6363571329008 633.8459076039867 679.0921341492441 0 0 0
423 1 1 0 665.6290846809771 659.4263962011504 637.1372254688011 0 0 0
424 1 1 0 638.4518265911834 657.7424346798907 636.0135427153189 0 0 0
425 1 1 0 673.2036450895608 680.7512457486986 658.958629924494 0 0 0
426 1 1 0 675.9364106896982 651.7536051726363 641.7798189441373 0 0 0
427 1 1 0 673.5878848048852 678.3911354521334 657.9756298799016 0 0 0