LAMMPS data file via write_data, version 2 Aug 2023, timestep = 50000, units = metal

31820 atoms
1 atom types

627.2628531233003 745.4251458767068 xlo xhi
627.7250560864939 745.6719429135078 ylo yhi
627.5020983858743 745.8949006141273 zlo zhi

Masses

1 12.0107

Atoms # full

1 1 1 0 660.1951708746612 632.8194956474156 631.1189922525442 0 0 0
2 1 1 0 652.1896842490642 651.1594371918399 680.2664659551263 0 0 0
3 1 1 0 628.6686257486836 678.1057055475238 681.646225808015 0 0 0
4 1 1 0 672.5240398066873 632.9745122433623 629.2089222061322 0 0 0
5 1 1 0 628.5603687979622 678.162200150403 632.0257096475966 0 0 0
6 1 1 0 653.1266692683351 649.2400033982365 631.6399463798792 0 0 0
7 1 1 0 679.1397611907248 630.7079919303287 629.371271982688 0 0 0
8 1 1 0 660.7853689142501 676.5955587321766 685.1706185497379 0 0 0
18000 1 1 0 628.5932126227807 683.8767543752946 659.1774426250395 1 0 0
10 1 1 0 633.8301414073817 663.8527123330725 684.7208610475702 0 0 0
11 1 1 0 629.1586980999451 672.5665552736327 682.0643542521219 0 0 0
12 1 1 0 628.4523851095375 677.9890360110256 678.7912607417408 0 0 0
13 1 1 0 650.497992048097 650.1342873301097 632.057018203362 0 0 0
19457 1 1 0 686.089821508278 658.8240594435317 627.968504227242 0 0 0
15 1 1 0 674.51036902674 666.6568250620759 633.9041669959204 0 0 0
16 1 1 0 629.3432076211966 681.4999296329376 673.6855214437542 0 0 0
3539 1 1 0 681.2862856593734 628.2788680838862 632.5392821977182 0 0 0
1501 1 1 0 627.7661437265155 683.6700671617657 670.181544105386 0 0 0
11450 1 1 0 650.7175542256474 628.3103716184986 656.0224253804089 0 1 0
20 1 1 0 627.8931259113948 674.6629293234257 682.0294849989223 0 0 0
732 1 1 0 663.3693224997896 683.0674186405286 627.8034843038204 0 0 0
22 1 1 0 632.8985933663662 661.7500093043852 684.5646773896243 0 0 0
23 1 1 0 661.7617797456478 677.3148449414412 685.9675619670169 0 0 0
24 1 1 0 666.2104343647387 680.7161677152795 630.968487258395 0 0 0
4201 1 1 0 682.0326268503602 634.8253207643123 627.53584422774 0 0 1
26 1 1 0 679.4639649857846 667.8541014321756 635.2435520640136 0 0 0
1618 1 1 0 627.5495243225735 632.1980424087653 628.3120533918723 0 0 0
8799 1 1 0 628.2233380831705 628.1607841130416 627.9508783506974 0 1 0
29 1 1 0 668.0244102042986 666.516430342266 641.2461771527467 0 0 0
30 1 1 0 665.562557508079 662.6273943452046 638.2369897278793 0 0 0
31 1 1 0 657.665783047461 652.4800968201131 681.4487369903228 0 0 0
4789 1 1 0 646.8845837062594 645.8995205948769 628.4879658370909 0 0 1
33 1 1 0 649.7638926930618 630.6650625199618 653.9429639661683 0 0 0
34 1 1 0 673.9621320200047 630.4179931529247 668.4091753331465 0 0 0
35 1 1 0 630.3655744549741 679.9753302576739 678.1369547973711 0 0 0
36 1 1 0 662.1268602393716 632.2932939320932 644.5416082856082 0 0 0
37 1 1 0 655.2435364018529 646.5804677982679 633.2210094088429 0 0 0
38 1 1 0 654.8545376948656 648.7153060238672 634.2016451309304 0 0 0
39 1 1 0 671.8332388492092 631.0605124059896 672.1751699139209 0 0 0
40 1 1 0 658.4303146313043 634.5023325399284 629.6141327193566 0 0 0
41 1 1 0 662.4334899863848 684.5895054395837 630.1155973135345 0 0 0
42 1 1 0 656.5325305963653 648.4151453892524 632.3694346630369 0 0 0
43 1 1 0 670.5373237891877 668.2180565094526 643.3702605075348 0 0 0
44 1 1 0 655.357045508638 631.6586866978997 652.0782511223541 0 0 0
45 1 1 0 661.181011990406 684.6161283413961 630.6727579771139 0 0 0
46 1 1 0 679.5492391831705 628.7024543897106 630.9443124732571 0 0 0
47 1 1 0 639.1360230937229 657.8563774095504 686.1025484898356 0 0 0
48 1 1 0 660.904665955696 660.4345957933499 681.2118973021365 0 0 0
49 1 1 0 677.9015455179426 667.9509091934533 635.1777470913966 0 0 0
50 1 1 0 668.5941579873254 630.5554270304277 677.8076908280657 0 0 0
51 1 1 0 655.2279169835119 655.2097442452821 633.8424779724264 0 0 0
52 1 1 0 683.7326375879053 660.8357096872074 630.1291783705565 0 0 0
53 1 1 0 659.5313780712482 683.8030157015675 629.3140784779425 0 0 0
54 1 1 0 657.1471975727558 636.5262481305855 631.1869244452865 0 0 0
55 1 1 0 661.6248066483943 681.8951749184126 633.1940785046748 0 0 0
56 1 1 0 675.7312677046317 667.3689906938496 633.9689141141939 0 0 0
57 1 1 0 653.9383787206051 666.0180380669321 637.2767093135064 0 0 0
58 1 1 0 642.8807902919925 654.1575094214027 633.8179741623961 0 0 0
59 1 1 0 671.2284734658929 669.4790638425104 643.0486340199934 0 0 0
60 1 1 0 675.5908335414049 668.7216607867301 634.5849218066022 0 0 0
61 1 1 0 654.0177958420026 653.5888370126515 635.813097526186 0 0 0
62 1 1 0 677.0337490758459 664.2612879186787 635.4945108239433 0 0 0
2019 1 1 0 668.9966437771676 628.3642850338302 631.3194978718649 0 0 0
64 1 1 0 675.4309270337031 632.144009674204 630.041656992082 0 0 0
6524 1 1 0 657.0527684532584 642.4300363236198 627.8497674859827 0 0 1
66 1 1 0 667.7483452062093 663.2313538408116 639.7598918914383 0 0 0
67 1 1 0 651.0406831034336 666.8547236715534 635.9096894044097 0 0 0
68 1 1 0 671.5078423141007 664.042519937008 642.056883715022 0 0 0
69 1 1 0 656.6629966416194 650.4434761614781 631.0716070130444 0 0 0
70 1 1 0 660.7595984248188 663.7040923603253 637.0413631567818 0 0 0
71 1 1 0 666.5439147621954 630.69799566923 674.6025406586101 0 0 0
72 1 1 0 652.5559180760094 675.6600559143033 684.0828491747453 0 0 0
73 1 1 0 665.7347985667152 632.0282894377409 628.4140730543828 0 0 0
74 1 1 0 630.0949296596028 665.2531809854256 684.2972590183759 0 0 0
7383 1 1 0 675.3678462104747 661.4375397346977 685.9492825112812 0 0 0
76 1 1 0 670.0331307398163 664.562853536703 642.4427571716736 0 0 0
77 1 1 0 654.668740856699 643.8523307280227 632.4569063529519 0 0 0
78 1 1 0 667.9457577515416 631.2816525561132 672.8332628149764 0 0 0
79 1 1 0 663.0582594262602 683.3451754525206 630.2253737850364 0 0 0
80 1 1 0 675.3935113734608 669.0655781951659 641.2234965650196 0 0 0
3798 1 1 0 686.2952939608938 628.9406874501129 665.9190356960181 0 0 0
82 1 1 0 682.2633088873971 629.3849793300456 669.4042215294539 0 0 0
19445 1 1 0 686.0385628994067 654.698912917286 636.1331537291146 0 0 0
84 1 1 0 628.9044959788765 629.7252849377942 632.6899918147699 0 0 0
85 1 1 0 630.1901258575474 629.7634537070044 631.5484916394421 0 0 0
86 1 1 0 648.6807742024612 666.8065662277725 635.7106153148817 0 0 0
87 1 1 0 629.6845777324555 683.497190345836 677.3001988558837 0 0 0
88 1 1 0 669.4115242198002 629.0852298141004 673.7761860748312 0 0 0
4045 1 1 0 630.3538560744396 671.7783141046272 686.6859043951522 0 0 0
90 1 1 0 658.9660678160359 633.2965484136179 631.6696441771 0 0 0
91 1 1 0 628.0674949702548 668.3204229567417 684.0271098072711 0 0 0
92 1 1 0 665.440959337803 666.5350715176833 640.5546060842285 0 0 0
93 1 1 0 656.8498649539301 662.9225496890323 635.7317318955122 0 0 0
94 1 1 0 649.2607349651869 665.4045984858259 635.3176894722918 0 0 0
95 1 1 0 628.8839104985976 683.890522988227 676.1667492239395 0 0 0
96 1 1 0 656.2513683173587 683.8057149599256 656.2298328293258 0 0 0
97 1 1 0 661.475290787726 670.2791669094611 637.0367465927723 0 0 0
98 1 1 0 649.4221690022812 668.010916368843 636.3229898693369 0 0 0
99 1 1 0 654.6765410686723 661.6339489348046 636.569887389117 0 0 0
100 1 1 0 650.6821777319769 665.7104689029617 635.2734325123853 0 0 0
101 1 1 0 653.3929684859652 660.924456775912 636.5717567777892 0 0 0
102 1 1 0 650.9950449623603 661.0058930945388 635.9216815394799 0 0 0
103 1 1 0 656.4342711348403 662.0027168056938 634.8379935690975 0 0 0
104 1 1 0 658.9339298611208 663.312287315517 634.5652526358058 0 0 0
105 1 1 0 677.9531719591274 666.506535160662 635.8986011334756 0 0 0
106 1 1 0 631.777557201301 655.1083878676707 659.1655128554211 0 0 0
650 1 1 0 655.2234824654515 685.7447980282966 656.2357221784248 0 0 0
108 1 1 0 655.326677436487 661.3331604539467 635.2403417453379 0 0 0
109 1 1 0 657.8474524612805 632.6429532220836 651.439252550304 0 0 0
2775 1 1 0 651.6143803477186 658.8664310414546 686.5934727343789 0 0 0
111 1 1 0 678.6468212773414 659.5262529054855 684.7644804458232 0 0 0
112 1 1 0 667.387233380033 633.3967665690388 639.7940780545218 0 0 0
113 1 1 0 668.9339994272185 663.4602251628713 640.5107442055274 0 0 0
114 1 1 0 668.6506914029675 633.3258495669126 668.404808812988 0 0 0
115 1 1 0 632.46288778418 654.773843603527 657.874356702998 0 0 0
116 1 1 0 630.4903137268013 672.9069511162813 681.7733928608809 0 0 0
117 1 1 0 629.4518182236985 677.6409897378538 631.0392696046097 0 0 0
118 1 1 0 683.9392355869564 662.0656672843219 629.4815288179564 0 0 0
119 1 1 0 663.3005112537596 661.93728978103 638.1604639543077 0 0 0
120 1 1 0 652.9752885592491 644.1982266841015 630.3950457903445 0 0 0
121 1 1 0 666.6846037736221 631.1402848397926 669.7018822746037 0 0 0
122 1 1 0 632.8190014904369 674.3682913340749 629.3985472959666 0 0 0
2635 1 1 0 669.1208560541163 628.3668382146004 628.5669078170312 0 0 0
124 1 1 0 651.2504854267812 651.246420180451 631.6585425931387 0 0 0
125 1 1 0 660.8982574517922 683.5975235009681 631.6518184696229 0 0 0
126 1 1 0 662.1985980032107 661.6561671296215 637.4197275096896 0 0 0
127 1 1 0 675.9044683930293 665.806036864161 636.966561112633 0 0 0
128 1 1 0 635.0610799310313 673.7624722627712 628.5298533656266 0 0 0
129 1 1 0 681.5925383447001 633.9357246040403 667.5098379185858 0 0 0
7030 1 1 0 679.3652412525869 633.2524866448106 628.0107282360749 0 0 1
131 1 1 0 658.0821693794985 681.9938716882665 629.9807635877901 0 0 0
132 1 1 0 629.5974503671248 676.9644876349748 628.4920136125484 0 0 0
133 1 1 0 666.3314977494268 633.9545518584306 651.4238833715648 0 0 0
134 1 1 0 630.5852870733349 674.5685805352915 628.3043956566223 0 0 0
135 1 1 0 658.5038941864582 684.9778259069052 656.0309650016426 0 0 0
136 1 1 0 650.355001340209 630.715713418708 660.2973294196825 0 0 0
137 1 1 0 660.281419208 681.4406255595295 633.4236956117245 0 0 0
138 1 1 0 640.0034375749797 673.1798525781674 628.6172457227707 0 0 0
139 1 1 0 664.0126915531063 681.73387491219 631.6648623681239 0 0 0
140 1 1 0 656.9451350328009 662.6579901571711 682.5205014026211 0 0 0
141 1 1 0 659.1450468291102 670.0260818569292 636.1876658358971 0 0 0
142 1 1 0 630.0303807631399 676.0326052045267 681.2249912185247 0 0 0
143 1 1 0 629.208353822092 677.8684350935002 629.7195090934813 0 0 0
144 1 1 0 648.0509917656576 651.7898347668533 634.3688807969994 0 0 0
145 1 1 0 662.534645346992 680.2184736569761 634.576338292952 0 0 0
146 1 1 0 682.6689093808011 633.0337861826133 667.552003223278 0 0 0
147 1 1 0 668.5668819433379 632.4199368363757 664.1788663810971 0 0 0
148 1 1 0 631.1267821840079 675.9384324401258 630.4655698250723 0 0 0
149 1 1 0 654.457215807224 683.2279969204355 652.7213329644393 0 0 0
150 1 1 0 653.2938147322791 650.8763128546616 681.1916304669444 0 0 0
151 1 1 0 668.7412348797209 628.486878933503 637.7396669825495 0 0 0
4574 1 1 0 677.1736812557514 685.6645098018417 686.5724399297062 0 0 0
153 1 1 0 681.0870231151778 666.1234377168233 634.8740501190025 0 0 0
154 1 1 0 680.4052572790164 667.48093864874 685.1328373540648 0 0 0
155 1 1 0 670.0393275213404 631.1967923990504 662.9504631606959 0 0 0
4805 1 1 0 632.9200793590134 659.5846733861399 686.2585532474516 0 0 0
157 1 1 0 630.5178548078078 676.4328556444896 632.8628820349844 0 0 0
158 1 1 0 676.6227692520857 668.711064458611 635.5798704340438 0 0 0
159 1 1 0 653.5747181193655 630.6533564095755 658.336036295373 0 0 0
160 1 1 0 655.9830754287725 644.3454957679479 632.4731066292 0 0 0
161 1 1 0 649.2433891129928 665.275841651483 684.9238341564114 0 0 0
162 1 1 0 659.0665863222255 641.6020520347884 628.6250444280151 0 0 0
163 1 1 0 629.556195207491 683.9098826551904 657.0544331170578 0 0 0
3889 1 1 0 648.3472733385498 647.7944205267096 629.3321797744248 0 0 0
203 1 1 0 628.1795795257381 673.3687700640116 635.0803583652934 0 0 0
166 1 1 0 656.3739850363893 650.4522091098012 633.5015949263328 0 0 0
167 1 1 0 673.2203824448619 670.937525545709 636.9701916567147 0 0 0
168 1 1 0 673.6371337417286 665.5884352007288 638.673222903459 0 0 0
3931 1 1 0 672.6640088312307 686.1354038734582 658.3732709793372 0 0 0
170 1 1 0 631.0089531268466 662.9592026462883 685.6747482098738 0 0 0
171 1 1 0 676.199742634623 663.4334300442783 636.4602117045188 0 0 0
172 1 1 0 652.9989261504107 631.6786973816668 653.0893379538612 0 0 0
173 1 1 0 649.6269161333132 628.3561158303488 660.5758630667311 0 0 0
174 1 1 0 660.1638787067219 660.5952917693386 636.2454966590244 0 0 0
175 1 1 0 683.84809160708 633.2800332505526 666.7919417193921 0 0 0
176 1 1 0 684.9667657798685 632.3563545441685 666.8932389010627 0 0 0
177 1 1 0 661.7343724624716 639.0323453298622 628.8519265549152 0 0 0
178 1 1 0 653.8893310974122 664.7882360343332 634.7127590380935 0 0 0
179 1 1 0 655.6246189801086 652.4674841227426 630.2218929582773 0 0 0
180 1 1 0 667.8799194083532 628.9326898867544 639.8951881373532 0 0 0
181 1 1 0 675.5840953452572 630.7314536747776 663.2091702859664 0 0 0
182 1 1 0 677.7552517223013 633.0847592227881 665.0023350702492 0 0 0
183 1 1 0 656.8906906382535 643.5694371160826 631.7821533884181 0 0 0
7627 1 1 0 680.5684053495759 632.1340526768591 628.2374182371032 0 0 1
185 1 1 0 672.0197624606468 669.8575212805873 636.6688534280182 0 0 0
186 1 1 0 650.841943803763 631.3097758340667 654.7012864146296 0 0 0
187 1 1 0 669.332666737619 631.2477700658404 664.2198435486871 0 0 0
5464 1 1 0 680.2718595504928 667.7076894744462 686.5109727167642 0 0 0
994 1 1 0 676.1516007159089 686.3655967166643 657.2346612570094 0 0 0
190 1 1 0 676.0498947348008 631.5804685337165 664.2829820066418 0 0 0
191 1 1 0 661.7030903762403 638.2382589825411 631.298478599309 0 0 0
192 1 1 0 662.7452046692912 637.3400169564284 631.121471063195 0 0 0
193 1 1 0 661.7795601025398 637.8315240493729 633.7181094561568 0 0 0
194 1 1 0 659.6018471967521 637.8518975439722 634.8624831458698 0 0 0
195 1 1 0 684.2001839452822 660.402284479669 632.4689688575179 0 0 0
196 1 1 0 656.6992540925896 668.4015435318275 682.0403196760649 0 0 0
197 1 1 0 677.4091781009465 632.013556196818 664.2093205466834 0 0 0
198 1 1 0 655.7985606850507 639.3535248954986 630.8668532643404 0 0 0
199 1 1 0 655.1546654374849 640.6041812318113 630.6926053811998 0 0 0
200 1 1 0 658.0092416993981 640.0527289323062 631.5224479496227 0 0 0
201 1 1 0 657.7698690085904 641.3477285336575 630.9553713531012 0 0 0
202 1 1 0 662.4053694283165 661.3325366237337 636.0771216300047 0 0 0
9665 1 1 0 628.2379088574446 628.7386645157449 631.5913701610475 0 1 0
204 1 1 0 659.979969052672 629.3659703479985 637.6465472336973 0 0 0
205 1 1 0 680.2438542864996 632.2668005546559 661.7544698160625 0 0 0
206 1 1 0 661.1017172952195 638.7126917249154 630.0851701881237 0 0 0
207 1 1 0 661.1524667607105 638.4395434084762 632.5714253844769 0 0 0
208 1 1 0 655.405094512083 641.7308368699174 631.5165593571511 0 0 0
209 1 1 0 654.4212081189736 632.0324024595097 653.157382911416 0 0 0
210 1 1 0 656.7608770251039 642.1578361574365 631.6220270530168 0 0 0
211 1 1 0 657.2983048245825 637.7442514326224 631.9695675488879 0 0 0
212 1 1 0 655.3223625820448 666.1732221545047 637.4895479812617 0 0 0
213 1 1 0 671.5906863202126 666.5886463964255 642.8264329258034 0 0 0
214 1 1 0 649.0952849336369 650.9956911322994 630.9156894212362 0 0 0
215 1 1 0 664.0601142408404 663.4063433073022 639.9539087475566 0 0 0
10224 1 1 0 683.2073470489634 628.0673086430254 671.1574292641351 0 1 0
217 1 1 0 653.6815799326266 650.2380008797305 629.5574817941705 0 0 0
218 1 1 0 663.6386193564567 678.9862373438694 685.3217402764968 0 0 0
219 1 1 0 669.6760076778907 673.4811559180481 634.6470436589289 0 0 0
220 1 1 0 669.0764586130862 666.8594144371556 642.0649847846607 0 0 0
221 1 1 0 658.9908839760733 638.2043689305132 633.6240298806091 0 0 0
222 1 1 0 653.7644083995849 684.0634952301239 653.6215151407423 0 0 0
223 1 1 0 670.917211194848 666.3641453592799 640.4768096275453 0 0 0
224 1 1 0 681.9173029620264 636.5515717810896 664.1236785094738 0 0 0
225 1 1 0 670.9225949121591 671.8579639702164 636.0344907570902 0 0 0
226 1 1 0 683.5828929054593 631.0729663385779 668.4257975102942 0 0 0
227 1 1 0 665.0273741624243 634.5898601236912 651.4980460056386 0 0 0
228 1 1 0 668.7512822370873 674.2625402435542 634.3010822058186 0 0 0
229 1 1 0 629.4460095304266 683.5262573370399 674.856581975483 0 0 0
230 1 1 0 634.6776194253501 675.1836711683234 684.0101993366197 0 0 0
231 1 1 0 665.9007481188311 633.308948678425 657.0274609166258 0 0 0
232 1 1 0 681.0333602830905 635.4379166085804 664.2845406478777 0 0 0
233 1 1 0 679.5173919768395 634.3940536187472 665.883257492415 0 0 0
234 1 1 0 651.287233479555 652.0737111271796 634.5304407745414 0 0 0
2037 1 1 0 684.4540613865963 628.7161986862795 671.0499696636116 0 0 0
236 1 1 0 665.9451790581357 632.4740967589739 655.7139185172467 0 0 0
237 1 1 0 679.1776156055026 633.9524697633931 667.2025553307153 0 0 0
238 1 1 0 664.7717309444711 632.4150651365328 669.7590648582994 0 0 0
239 1 1 0 668.4049637672072 681.609692783445 628.7754222301614 0 0 0
240 1 1 0 655.126366662863 655.5257404815494 632.3159323430053 0 0 0
89 1 1 0 628.3835898491005 676.367543363408 627.7456110870858 0 0 0
242 1 1 0 667.9952791136994 628.9885884306937 673.6241175560187 0 0 0
243 1 1 0 653.1146336827576 630.7142531178077 655.2729898393002 0 0 0
244 1 1 0 667.4137877961599 632.3538350779047 672.1460500612376 0 0 0
245 1 1 0 658.3921609243001 628.3720217457598 641.3909305581705 0 0 0
246 1 1 0 661.829529815776 633.0741183910302 650.9032485237764 0 0 0
247 1 1 0 667.2806412761813 630.2554887301809 673.5059554474525 0 0 0
248 1 1 0 653.201509133892 650.7915815702701 634.5264829486557 0 0 0
8520 1 1 0 646.738030849093 628.7320269544531 656.1766743751728 0 1 0
250 1 1 0 654.4617292105609 650.9688893368776 634.9159081746003 0 0 0
251 1 1 0 654.9005394961466 652.2872367673488 635.1543363460718 0 0 0
252 1 1 0 659.8203705755861 638.8390125188212 632.6682648904274 0 0 0
253 1 1 0 666.0091377937666 630.8698175330603 678.3353229845746 0 0 0
254 1 1 0 630.5108491532503 669.8463456052248 684.8923813998808 0 0 0
255 1 1 0 674.363595430588 669.2623368095342 635.1376214810492 0 0 0
2148 1 1 0 668.5056410687811 680.2833961473985 685.4456145931705 0 0 0
2161 1 1 0 671.639027912643 633.0246426400482 628.1336814318296 0 0 0
258 1 1 0 667.2862971745853 666.3824257590499 638.8794808182844 0 0 0
259 1 1 0 658.8893828977008 657.3220409231918 682.4562331193357 0 0 0
260 1 1 0 661.521147286435 633.2243977513822 652.2427716353067 0 0 0
261 1 1 0 682.9895689562715 635.429018913838 666.057332366984 0 0 0
529 1 1 0 630.4590144563571 686.4365269543981 658.4744603494139 0 0 0
263 1 1 0 677.1183505354257 685.4094434527597 661.2089862693673 0 0 0
264 1 1 0 670.7348082422398 674.6332529673402 683.3117357622988 0 0 0
265 1 1 0 684.0258401769538 634.5032688109197 666.1950901290885 0 0 0
266 1 1 0 634.135307129158 673.839884765275 684.1562482845311 0 0 0
267 1 1 0 659.704657132129 638.9257498014814 630.2113089272283 0 0 0
268 1 1 0 675.4751790390163 672.6519693732773 685.1332668207856 0 0 0
269 1 1 0 681.7407162153713 634.9921778611226 666.5705892935745 0 0 0
270 1 1 0 676.5774097013763 630.0877289699572 662.4263507744959 0 0 0
271 1 1 0 680.6926139357481 635.0875904952701 665.6391684380084 0 0 0
272 1 1 0 677.9275140361078 630.3732838456456 662.5481859284982 0 0 0
273 1 1 0 648.3230411961306 658.2014341157543 634.7326553737687 0 0 0
274 1 1 0 627.9349054462025 672.6562148214712 685.6488671979835 0 0 0
4172 1 1 0 679.4642389968167 686.3426981403943 686.3370870191399 0 0 0
276 1 1 0 670.7663703742063 633.2173003885941 669.7144835220224 0 0 0
277 1 1 0 658.8171049456489 638.6351962879756 629.099199248826 0 0 0
278 1 1 0 654.7547901921205 660.4047056643342 634.4379185277329 0 0 0
279 1 1 0 659.2591508179182 639.3853185756961 631.4739805942723 0 0 0
280 1 1 0 666.5280247956754 673.4945573918967 635.2690679456394 0 0 0
281 1 1 0 656.9149859751865 639.1230353431772 631.695807267061 0 0 0
282 1 1 0 673.5642055971342 629.4481828730791 634.9322798822569 0 0 0
283 1 1 0 664.9020782839195 635.6689257840072 663.4412179217346 0 0 0
284 1 1 0 665.1836419186461 634.0992047456729 663.3643594995931 0 0 0
285 1 1 0 665.10785184126 673.3701903371111 635.1874263916035 0 0 0
16730 1 1 0 627.4096201525349 657.4652810131989 654.8991207594964 1 0 0
287 1 1 0 678.8813840557273 633.8303909800082 664.8136833984378 0 0 0
288 1 1 0 653.6327789271809 659.7777272314715 634.9415502583756 0 0 0
289 1 1 0 656.1280172121398 645.7276310699579 632.4995778262522 0 0 0
290 1 1 0 661.8472868508703 632.9436172280506 645.8783699852237 0 0 0
107 1 1 0 648.3145918708578 671.3780872748121 685.8120191180558 0 0 0
292 1 1 0 668.3310177565907 632.9758879807986 671.0890753478923 0 0 0
293 1 1 0 673.4917545115804 668.4954419699036 640.8894182872347 0 0 0
294 1 1 0 628.0844611830743 670.977210488109 685.8221643917125 0 0 0
295 1 1 0 667.4445456956205 632.8381129074758 663.3831473188247 0 0 0
296 1 1 0 663.6893492482584 637.1336280094869 628.9299767491273 0 0 0
297 1 1 0 654.3521731910123 684.7617325925979 657.0104831797757 0 0 0
298 1 1 0 668.3523851030727 632.4136077994362 674.6171909598671 0 0 0
299 1 1 0 673.5406167652063 630.9888222665816 661.6930841816366 0 0 0
300 1 1 0 657.9917337773106 658.0782815852351 679.5688842050835 0 0 0
301 1 1 0 663.1151129012202 635.6215443825045 664.9907716172602 0 0 0
302 1 1 0 666.6197364086181 633.1944409397099 677.6134967718424 0 0 0
303 1 1 0 665.0338160074392 629.3458369787935 637.7826022124983 0 0 0
304 1 1 0 663.0876348851257 681.1672087826416 684.6544259670957 0 0 0
305 1 1 0 658.4406651176445 669.6008166946153 682.8650471373405 0 0 0
306 1 1 0 656.0726641557627 638.531766257872 629.665551042581 0 0 0
307 1 1 0 655.2061390595954 649.3189283580343 680.0645523135784 0 0 0
308 1 1 0 669.161530516718 633.5891784379802 672.2565264035374 0 0 0
309 1 1 0 680.4100705241347 684.5221305580056 657.2895083163932 0 0 0
310 1 1 0 656.2657352735166 683.7122036503184 654.5820636185655 0 0 0
311 1 1 0 648.3101649892342 653.0302176038176 634.9151404022798 0 0 0
312 1 1 0 668.6689827283965 629.1671521936844 677.8485496267823 0 0 0
313 1 1 0 650.8198557803128 653.3798058349533 634.881030088163 0 0 0
314 1 1 0 661.3292697397717 630.7366621546016 652.7451315155183 0 0 0
315 1 1 0 670.1082159054424 630.275442338087 673.6117513352355 0 0 0
316 1 1 0 667.238941438491 632.4372753381307 662.0172992914323 0 0 0
317 1 1 0 656.3741549311846 647.3726186464197 670.3409122098645 0 0 0
2870 1 1 0 635.176590263413 685.9043354164911 662.5322262671508 0 0 0
319 1 1 0 667.863183572552 665.9738211404949 637.4181616957039 0 0 0
535 1 1 0 634.6155178331966 679.5282490712895 627.7439817858008 0 0 0
321 1 1 0 651.6050186787254 685.343014242357 654.8432305616626 0 0 0
322 1 1 0 642.6577401918454 669.4283232494014 685.0278682154333 0 0 0
323 1 1 0 650.4676037999751 667.4079645516554 637.3383857784522 0 0 0
324 1 1 0 646.240341379894 653.9102285489083 634.272479268463 0 0 0
325 1 1 0 645.3158515908187 654.9466119677556 633.9367486990752 0 0 0
326 1 1 0 647.3227181106844 653.9429370824095 635.1933211045928 0 0 0
327 1 1 0 647.4297825124013 655.1540677075654 635.886867483879 0 0 0
328 1 1 0 651.3564421818742 654.4103283337963 635.6151947582656 0 0 0
329 1 1 0 648.5963351980728 655.7692933768428 636.4016547534014 0 0 0
330 1 1 0 650.2169190043817 655.6490726581995 635.8960168293738 0 0 0
331 1 1 0 650.7236411436702 656.9462138941075 636.64310962117 0 0 0
332 1 1 0 667.6400490050055 674.6174877992577 635.2969384091612 0 0 0
333 1 1 0 656.7813436708888 667.3826360586396 634.4176041117514 0 0 0
8502 1 1 0 646.7840002824431 627.9999760411987 652.2205790464704 0 1 0
335 1 1 0 671.2467934394432 667.8003819179562 639.871923825566 0 0 0
336 1 1 0 674.0734822339426 671.2940206301952 683.2724846256062 0 0 0
337 1 1 0 655.5643690862948 650.8427157938969 677.2794661448174 0 0 0
338 1 1 0 658.6965559557843 648.6314135039084 674.5684427029315 0 0 0
339 1 1 0 657.8335685521641 649.7693578703323 674.08673764423 0 0 0
340 1 1 0 643.9085189321668 654.7453830261965 634.6797315887368 0 0 0
341 1 1 0 651.8150286032741 648.2690215126632 629.8688510710466 0 0 0
342 1 1 0 644.8505382223138 655.226825548563 635.8564971171453 0 0 0
343 1 1 0 646.1387368501289 655.8682138061188 635.8919034914602 0 0 0
344 1 1 0 648.3882514527504 657.0796367199399 636.8873823035128 0 0 0
345 1 1 0 646.2025426502654 657.2421070303025 635.671283998497 0 0 0
346 1 1 0 649.656824067329 657.7098292334857 637.2069965214372 0 0 0
347 1 1 0 649.694836790342 659.1593763332685 637.2639559860158 0 0 0
348 1 1 0 656.7351692048237 652.0624428766548 673.3126330630884 0 0 0
349 1 1 0 684.8370680013579 664.1391570832312 630.3357755750319 0 0 0
350 1 1 0 651.2869254114345 629.9968776416681 652.1544051660537 0 0 0
351 1 1 0 676.0591949588267 668.439679992882 636.8148795942213 0 0 0
352 1 1 0 672.7231363719706 662.5699663232291 638.5404864149752 0 0 0
353 1 1 0 672.3962516831592 662.9594637361231 639.8275196211798 0 0 0
354 1 1 0 674.1038460642067 663.0689376187797 638.0005980141008 0 0 0
355 1 1 0 674.973412255652 662.5194754113978 639.296964008196 0 0 0
356 1 1 0 676.7870158138885 663.3520681481932 637.9031705425292 0 0 0
357 1 1 0 676.3050749058293 662.3855730777625 639.0388903802228 0 0 0
358 1 1 0 673.2154674512407 662.7071468653323 640.9252927152153 0 0 0
359 1 1 0 672.5139840498808 663.0681690118457 642.1372273236183 0 0 0
360 1 1 0 674.6343042132614 662.8546418719867 640.6486604518917 0 0 0
361 1 1 0 675.7943682664084 663.3136983164945 641.4175509956134 0 0 0
362 1 1 0 677.2236666482661 662.0465767703799 640.017160770571 0 0 0
363 1 1 0 677.0763003047896 662.7198517205773 641.2421122592325 0 0 0
364 1 1 0 674.6301605852274 665.3469063858021 642.1725116347264 0 0 0
365 1 1 0 674.9175540860924 666.2661229902103 643.2452003716481 0 0 0
366 1 1 0 675.777484425666 664.6697609471267 641.7708650284021 0 0 0
367 1 1 0 677.005475407307 665.4524438810314 642.0095015004893 0 0 0
368 1 1 0 678.2949354908405 663.2886945211369 641.7434167039775 0 0 0
369 1 1 0 678.2693349231853 664.8131065518953 641.3798452972659 0 0 0
370 1 1 0 675.8007283468903 667.340319797955 642.9015577527604 0 0 0
371 1 1 0 675.1781676418565 668.593081361708 642.549858888133 0 0 0
372 1 1 0 676.9962049829936 666.8721468656524 642.221255594562 0 0 0
373 1 1 0 676.705536617044 665.6037982598225 639.4409514847832 0 0 0
374 1 1 0 679.5541811574004 665.6619533095455 641.4844623679525 0 0 0
375 1 1 0 677.8861283154862 664.9363620437623 639.9100225886923 0 0 0
376 1 1 0 676.3580096171909 668.2948627555667 640.4357995042201 0 0 0
377 1 1 0 677.5057407101481 667.7437983740889 641.2136273030194 0 0 0
378 1 1 0 676.8648425632168 667.1215421544863 639.4313302525758 0 0 0
379 1 1 0 678.0324106082029 667.3548517469696 638.641707256502 0 0 0
380 1 1 0 678.9043029163984 665.0204085602604 638.9944951650175 0 0 0
381 1 1 0 678.7563864032857 666.1606287984 638.1557226168435 0 0 0
382 1 1 0 678.8372776647126 667.9110522326915 640.5695859669817 0 0 0
383 1 1 0 679.7925945901004 666.9526258468819 640.9570442184723 0 0 0
384 1 1 0 679.1533970229902 668.3307077743411 639.0611200904569 0 0 0
385 1 1 0 680.4004022588222 668.1252376693056 638.2515557621349 0 0 0
386 1 1 0 679.6316546544808 666.2117084737653 637.1516360934671 0 0 0
387 1 1 0 680.1720374464578 667.6198030980063 636.7328660264179 0 0 0
388 1 1 0 681.1019600243478 667.0072443916043 640.3110425094084 0 0 0
389 1 1 0 681.7695530515994 665.8723563483535 640.825343841753 0 0 0
390 1 1 0 681.4529419694322 667.3881761848445 638.9206453063988 0 0 0
391 1 1 0 682.5298434327215 666.6111905968331 638.2468345867578 0 0 0
392 1 1 0 681.5197655638987 667.0017592976327 636.1044366955471 0 0 0
393 1 1 0 682.6522907600647 666.6128699566311 636.8196339194843 0 0 0
394 1 1 0 677.8347879651138 662.2289595088137 637.4263297517829 0 0 0
395 1 1 0 678.6838629209698 661.500484619485 638.2739681086266 0 0 0
396 1 1 0 678.4507230492958 661.5613895351657 639.6342159065521 0 0 0
397 1 1 0 679.5008588112934 661.4537926264347 640.5995543775183 0 0 0
398 1 1 0 679.5339623710805 662.5985859684066 641.5839790462201 0 0 0
399 1 1 0 682.163255052308 663.3571651889621 641.6125077895485 0 0 0
400 1 1 0 680.8140924241019 664.8199094523833 641.131714220518 0 0 0
401 1 1 0 680.8092772896637 663.8273866554028 639.9293150409986 0 0 0
402 1 1 0 680.0275718616411 664.2213270222447 638.8693158547126 0 0 0
403 1 1 0 680.554153073783 664.0541533690067 637.626823635978 0 0 0
404 1 1 0 680.1596870139408 665.0329292550797 636.7477211763719 0 0 0
405 1 1 0 680.4054869615342 664.8433391969309 635.366418220624 0 0 0
406 1 1 0 672.7354884780138 630.892506721246 671.0411105747996 0 0 0
407 1 1 0 672.9772957270698 670.4846054801884 641.568471485537 0 0 0
408 1 1 0 682.9601858529563 665.3811352555031 640.345636548701 0 0 0
409 1 1 0 683.2794648960459 664.2234328234169 641.1153546364851 0 0 0
410 1 1 0 683.3348010950747 665.6145390799315 638.964793607086 0 0 0
411 1 1 0 684.2291224312544 664.7561570321988 638.3074067274233 0 0 0
412 1 1 0 683.5882411201642 665.7829000182719 636.15703179251 0 0 0
413 1 1 0 684.2207310567666 664.7649637115912 636.8985224229269 0 0 0
414 1 1 0 684.2885787421296 663.3942951576361 640.5627279704917 0 0 0
415 1 1 0 683.9879969139776 662.0831534422236 640.9237227352115 0 0 0
416 1 1 0 684.6371752212376 663.4021647618414 639.0070518824139 0 0 0
4942 1 1 0 684.2082500505511 629.9631297056468 627.8308578902619 0 0 1
418 1 1 0 684.571062626514 663.6723118275977 636.0538512671095 0 0 0
419 1 1 0 685.0475656467365 662.414089584896 636.5889288591567 0 0 0
420 1 1 0 680.1633220643502 660.80631070446 636.3750464087894 0 0 0
421 1 1 0 679.7478727988523 660.8104441933415 637.7549297856203 0 0 0
422 1 1 0 681.5055672121289 660.4779503780485 636.129074691311 0 0 0
423 1 1 0 682.1566977102286 659.6083597064321 637.0017327300604 0 0 0
424 1 1 0 683.8880190627606 658.9155511878032 635.2440233886304 0 0 0
425 1 1 0 683.5976813370135 659.177499156144 636.7240495424842 0 0 0
426 1 1 0 683.9312737499836 657.5798464917523 634.8945472957897 0 0 0
427 1 1 0 684.5000682204226 656.5154535092614 635.6338946716645 0 0 0