LAMMPS data file via write_data, version 2 Aug 2023, timestep = 50000, units = metal

3836 atoms
1 atom types

651.6756953070394 708.2503046929535 xlo xhi
652.1678247803933 708.4671752196085 ylo yhi
651.9417346706942 708.6932653293076 zlo zhi

Masses

1 12.0107

Atoms # full

1 1 1 0 672.7062040859167 655.2104383577598 667.5009060485818 0 0 0
2 1 1 0 666.8894421206174 653.7476990842399 674.4677793533879 0 0 0
752 1 1 0 673.9348491188756 665.2334016109223 653.3727810725808 0 0 1
775 1 1 0 665.2841871879525 661.2987607960528 652.6845281415239 0 0 1
5 1 1 0 668.1480956449731 656.4156697462255 668.8790756241698 0 0 0
6 1 1 0 667.2721270799092 655.6392430795205 676.4919503115207 0 0 0
7 1 1 0 677.2803990430211 670.991055660023 654.2821611766444 0 0 0
8 1 1 0 666.9361776513613 654.4955240905828 671.7849348004637 0 0 0
9 1 1 0 668.5345856710918 655.2824118393471 668.1438943598893 0 0 0
10 1 1 0 670.6344196579898 656.5004523179914 667.5735598369071 0 0 0
11 1 1 0 674.7362077521237 653.9238685540984 667.8266976633369 0 0 0
12 1 1 0 676.8485363191448 655.054517714041 667.9327491424365 0 0 0
1433 1 1 0 672.5922072510385 652.8802545100453 667.8809505024218 0 1 0
14 1 1 0 667.6041515817341 660.005993185613 674.1631278806196 0 0 0
15 1 1 0 667.221129948793 654.2652224897462 676.7896165227577 0 0 0
16 1 1 0 668.8501706146116 657.5889735198667 668.7535291866495 0 0 0
17 1 1 0 666.9131729053039 655.0912646622411 674.1840670637162 0 0 0
18 1 1 0 657.33583510187 676.3729968328355 668.9816517373979 0 0 0
34 1 1 0 655.2031959170581 672.415411998902 653.3419026452019 0 0 0
20 1 1 0 667.0009405083691 655.4458965686777 672.7919092912088 0 0 0
21 1 1 0 664.4275880204751 673.9277013513682 671.6430021272212 0 0 0
22 1 1 0 665.1419466828281 673.7935274135326 672.8340419324401 0 0 0
23 1 1 0 670.1234067982573 675.8679618551557 661.2209453314888 0 0 0
907 1 1 0 656.8052078114627 663.6518618657117 652.2945876323653 0 0 1
627 1 1 0 657.2606106424822 665.5534054029534 653.8326462371226 0 0 1
158 1 1 0 660.564388768462 653.4508615919995 661.5053410149518 0 0 0
66 1 1 0 679.4616903860018 665.2968815950859 652.9711522703936 0 0 0
160 1 1 0 661.2046008677461 652.5937110674876 659.0795418030409 0 0 0
406 1 1 0 662.3026010245907 674.1423808463119 673.0815700711668 0 0 0
161 1 1 0 661.596299579205 652.4435342671527 657.9082621420727 0 0 0
31 1 1 0 667.881279005175 658.7996003290397 678.2926446141145 0 0 0
32 1 1 0 667.2653051218504 675.5660519947648 661.138213894258 0 0 0
33 1 1 0 654.181717947186 656.9645280793518 668.0348489529161 0 0 0
539 1 1 0 664.5723201916867 663.4365030978182 653.404864320829 0 0 1
35 1 1 0 657.4101428870241 675.8306521799285 667.5761524132269 0 0 0
36 1 1 0 674.4089113061959 673.5028996333544 654.1544501700564 0 0 0
37 1 1 0 671.4759465061159 675.4811428121737 654.6930111181942 0 0 0
38 1 1 0 661.3352148722855 677.4531266642426 673.2584332767299 0 0 0
439 1 1 0 661.8905871238202 676.9533177553928 674.5798153801853 0 0 0
40 1 1 0 670.1321499359444 677.4529562482529 655.5222251223647 0 0 0
41 1 1 0 664.647156071798 653.1221396736643 655.8498440608347 0 0 0
42 1 1 0 667.2603712915108 657.4046339523554 674.8086956797273 0 0 0
43 1 1 0 671.9743737163385 676.6452906289279 659.7190875672391 0 0 0
44 1 1 0 672.7763001666509 657.6332251033504 667.5862927864201 0 0 0
990 1 1 0 669.8734097425739 652.8746250351534 667.6147604643302 0 1 0
46 1 1 0 676.1565342052395 668.9033010612413 654.8940000923121 0 0 0
47 1 1 0 667.4808850931862 657.9373927896796 677.2222558090618 0 0 0
159 1 1 0 660.9971087215171 652.8634977443518 660.3738754753484 0 0 0
49 1 1 0 661.3919336134521 676.6058665318205 672.1019094719812 0 0 0
248 1 1 0 662.5366171787678 677.7019836964035 653.2365470029595 0 0 0
51 1 1 0 678.2804262852663 668.7098354992447 653.7903670170407 0 0 0
52 1 1 0 676.9914018022379 666.459375531562 653.3169387331535 0 0 0
53 1 1 0 665.7294163075563 675.6299903268965 677.1960748896917 0 0 0
405 1 1 0 660.3300463309466 653.0916984556782 655.579680156696 0 0 0
1896 1 1 0 653.1195987717865 660.2921144572654 665.6341325336585 1 0 0
372 1 1 0 658.7423209860951 656.9831026156211 653.4287949170399 0 0 0
2142 1 1 0 652.5087449706368 658.3890292074246 666.9714193345507 1 0 0
320 1 1 0 667.4076951510185 676.6253540101444 679.0530200426932 0 0 0
898 1 1 0 664.0500353172249 660.5887529268828 652.7049289374727 0 0 1
300 1 1 0 659.1710359323075 654.9641153110928 654.6589190772064 0 0 0
404 1 1 0 660.6004292131583 673.6144754140159 667.634703135649 0 0 0
62 1 1 0 660.3539688349227 675.1556601770673 674.1756478274949 0 0 0
63 1 1 0 677.988723463796 675.24377146839 678.681813320919 0 0 0
64 1 1 0 678.1297240211358 667.2982889340168 653.5341752861225 0 0 0
79 1 1 0 679.4592098874367 662.5018316741608 652.483795057313 0 0 0
400 1 1 0 662.2274131511223 673.6935820635169 670.5807965517884 0 0 0
54 1 1 0 668.0419639178683 655.1266667014299 653.279436988189 0 0 0
259 1 1 0 655.1464132143464 666.8215737532815 654.458824335704 0 0 0
69 1 1 0 659.3961696264943 676.2603840939955 673.845121783418 0 0 0
70 1 1 0 667.4910387727083 653.8273062046259 678.05955295608 0 0 0
71 1 1 0 667.6904809495246 665.1880239486187 654.5598271451779 0 0 0
72 1 1 0 658.7190583740955 676.3832819261053 671.1681201539026 0 0 0
1441 1 1 0 678.0798250350058 652.6417608488956 668.647414491193 0 1 0
422 1 1 0 660.1279840711495 676.0173926525596 671.5779791030837 0 0 0
75 1 1 0 675.9464384191444 666.6014244578441 654.2026654509518 0 0 0
328 1 1 0 679.8420251143042 669.5975662735561 669.4510775080953 0 0 0
138 1 1 0 667.2772776829793 654.8274886279552 652.0925347963691 0 0 0
840 1 1 0 659.536914761554 666.1423370250699 653.9541668623231 0 0 1
431 1 1 0 662.5966443406217 674.874955722839 675.3294392463363 0 0 0
1424 1 1 0 653.4421098852221 678.7493194795435 668.1428008514946 0 0 0
440 1 1 0 661.1760407973236 677.2845528829394 653.242352369331 0 0 0
82 1 1 0 667.1417949977404 653.7265730642649 669.4432171041989 0 0 0
83 1 1 0 669.6982190880161 666.6457041206284 654.537558674613 0 0 0
409 1 1 0 662.8513119468768 673.4344241449913 669.35498786286 0 0 0
185 1 1 0 664.1560055165448 655.0783911267633 654.5737614869843 0 0 0
86 1 1 0 667.1272457138288 659.6851384287763 675.4157770642526 0 0 0
87 1 1 0 660.8723207041455 674.2935450346547 673.0470104988866 0 0 0
88 1 1 0 667.5869492024948 659.1208735445279 673.0526384155439 0 0 0
89 1 1 0 672.4629704555877 669.1814267531698 654.2182539906155 0 0 0
394 1 1 0 671.340740351436 676.0079725695022 658.4128040698653 0 0 0
435 1 1 0 672.23502631228 673.3045760825152 653.2483493180101 0 0 0
275 1 1 0 679.6730703361379 666.122404934191 667.6905633888697 0 0 0
93 1 1 0 672.3581715287278 666.9369131768441 654.8927417018963 0 0 0
94 1 1 0 669.8765324864153 664.2494329381885 654.3546202328356 0 0 0
876 1 1 0 678.4316637700873 663.2769081740084 651.9786864568304 0 0 1
96 1 1 0 661.49091378697 675.6246042879892 674.9162116724808 0 0 0
97 1 1 0 654.8133741007739 658.7849071953661 666.7011866062734 0 0 0
98 1 1 0 667.4535295486995 674.1610643266524 676.3722451897687 0 0 0
99 1 1 0 655.9303242897911 670.1758405153018 654.4741646245776 0 0 0
100 1 1 0 656.884173145213 669.6373704988031 655.3760065217275 0 0 0
101 1 1 0 678.8595076861196 653.8092041454776 668.6320159106219 0 0 0
102 1 1 0 653.5177799431607 654.751141519212 668.7884034622356 0 0 0
103 1 1 0 657.7670488996082 668.6518865809077 654.9338074441507 0 0 0
104 1 1 0 666.94586573831 677.9881853854666 656.9142782846154 0 0 0
105 1 1 0 667.9473454697273 660.8031243753439 671.1545375660588 0 0 0
106 1 1 0 678.5604583926835 671.5452026088145 654.2832907475032 0 0 0
107 1 1 0 667.0885547182647 675.6362352166744 663.5447609099654 0 0 0
24 1 1 0 678.676936077361 674.185063248484 676.628839962431 0 0 0
109 1 1 0 673.8477384676947 677.4543360127229 658.1792768113625 0 0 0
110 1 1 0 674.5852270957894 676.784029057241 657.1843356757807 0 0 0
111 1 1 0 674.74007626917 675.6696875931616 656.3833372493275 0 0 0
112 1 1 0 660.4687002070463 655.3121961989557 656.535535919572 0 0 0
113 1 1 0 664.842735165452 675.1438359679945 676.2345386300259 0 0 0
982 1 1 0 662.0794966238826 677.7602027731745 675.9005811624113 0 0 0
115 1 1 0 659.7154594524684 654.3580874950226 655.7779480523704 0 0 0
863 1 1 0 668.4124084020783 662.0895706629382 652.9384096965529 0 0 1
117 1 1 0 668.112985494724 677.9105678199307 658.864991771614 0 0 0
2039 1 1 0 653.4994615347937 659.2371405864056 666.4583966241873 1 0 0
1888 1 1 0 652.8143660295505 657.2129834340783 667.6460287843192 1 0 0
120 1 1 0 656.1299379739853 676.9551588460682 669.4387303420689 0 0 0
352 1 1 0 655.6507143262664 673.7500468006052 653.5706512713438 0 0 0
122 1 1 0 666.0708906248303 676.5895150915279 658.6143266464381 0 0 0
123 1 1 0 666.6355186075042 653.1617986162563 672.1171222328347 0 0 0
396 1 1 0 667.7440247516174 659.5245406170196 671.738105100277 0 0 0
125 1 1 0 662.4947643025342 654.2472046364331 656.1217807359325 0 0 0
126 1 1 0 670.0271161425868 676.4674553945431 658.97521704199 0 0 0
127 1 1 0 670.568469578915 654.0591607708764 667.5272298837197 0 0 0
128 1 1 0 658.3920756785813 675.9396508847778 669.8545887990678 0 0 0
129 1 1 0 677.7194033479213 673.4753680084455 655.5625021819926 0 0 0
130 1 1 0 675.8576695902527 675.0161271106139 655.8250322981887 0 0 0
305 1 1 0 674.9044471801673 669.4600780745984 654.7676025814176 0 0 0
81 1 1 0 665.8874191638671 655.2497099773309 652.3975942091307 0 0 0
133 1 1 0 667.5178298081146 657.114958449539 671.1265250796984 0 0 0
134 1 1 0 664.5615011143605 677.655299138503 655.0492381446007 0 0 0
135 1 1 0 672.9423461861635 677.8979171728719 662.343396390388 0 0 0
136 1 1 0 665.370300244813 675.8069564648695 659.5754467580535 0 0 0
137 1 1 0 665.337842682227 674.3725854948843 675.1868347163809 0 0 0
411 1 1 0 674.0875315876929 655.1413762985773 667.5733979782035 0 0 0
139 1 1 0 654.4909873103207 655.7996212435987 668.801750557859 0 0 0
140 1 1 0 666.9814263534552 674.9604785200139 677.3994446079488 0 0 0
141 1 1 0 666.6514654417289 673.9633932651583 675.2286920237599 0 0 0
142 1 1 0 666.4353861762645 677.5111281628579 678.5023435434198 0 0 0
143 1 1 0 667.562097947662 678.8050670571391 657.9060574996702 0 0 0
144 1 1 0 669.0166639032251 678.3004600291844 655.6435927337196 0 0 0
416 1 1 0 666.8418711745238 653.3678725292641 675.82567481602 0 0 0
146 1 1 0 667.3071371840501 656.7808676728868 672.4605387329502 0 0 0
481 1 1 0 657.7813898514647 670.0318222622495 652.5384718550035 0 0 1
427 1 1 0 662.7086981562712 676.3838012917248 670.0818786552004 0 0 0
452 1 1 0 673.7476324713336 667.238893425809 654.7324857875934 0 0 0
150 1 1 0 663.7699691215082 654.1548944573758 655.537926311268 0 0 0
151 1 1 0 672.5108036729617 677.6225710332185 658.5836343694186 0 0 0
152 1 1 0 666.4412032262668 673.3369065778122 672.8610869522654 0 0 0
153 1 1 0 662.5644897322985 675.9712353682754 671.4684347134108 0 0 0
154 1 1 0 676.2319995396275 667.5180353887832 655.2113007555992 0 0 0
155 1 1 0 670.34237992385 678.8428989895887 658.3119638288113 0 0 0
156 1 1 0 667.4090895740505 676.7607483994998 659.1075478426125 0 0 0
157 1 1 0 667.938036153843 653.9832773395501 668.3090782909453 0 0 0
442 1 1 0 668.028017123402 657.8417498781141 653.4547732979747 0 0 0
50 1 1 0 679.6805107690194 670.7526655677756 654.0463856392603 0 0 0
108 1 1 0 667.75576897609 654.1025217459456 654.2548549216955 0 0 0
770 1 1 0 666.1627310594874 665.4289765547992 652.7464615136009 0 0 1
162 1 1 0 663.5002777743138 676.6291830975002 664.4353557994093 0 0 0
163 1 1 0 665.8596164761501 676.2353020230477 663.391881970657 0 0 0
164 1 1 0 664.2411553882795 676.3704692781714 663.2855400475682 0 0 0
165 1 1 0 666.1216339596143 675.4626466951516 665.685722379046 0 0 0
166 1 1 0 664.0309173220478 676.60322991167 665.8183123951134 0 0 0
167 1 1 0 664.8697375519263 675.5133151489829 666.2390388931288 0 0 0
168 1 1 0 665.1092054522876 676.0560459729751 662.0162502547662 0 0 0
169 1 1 0 665.8064326812101 675.7596160505516 660.9163267537789 0 0 0
170 1 1 0 672.1561800248505 676.6966612462898 662.2452685068158 0 0 0
171 1 1 0 671.6026244664153 675.9805022707718 663.340033710572 0 0 0
172 1 1 0 656.2961164274683 657.0449912306743 669.5895858162804 0 0 0
173 1 1 0 656.4639867636394 657.7013413303902 668.2912788374028 0 0 0
174 1 1 0 655.690981385135 655.7939636792395 669.495757204492 0 0 0
862 1 1 0 679.6452767807542 661.1584387222763 652.1331960425625 0 0 1
176 1 1 0 671.5483884619264 678.3346912075395 657.7342670602528 0 0 0
403 1 1 0 660.3312990498906 674.5794972666815 671.776776286517 0 0 0
178 1 1 0 667.3058521327087 658.3136471525488 675.8456294113797 0 0 0
179 1 1 0 658.5265098331406 675.1990183936487 667.0577597318598 0 0 0
393 1 1 0 664.3831981145137 674.4520349619912 667.08420106988 0 0 0
402 1 1 0 661.8031820799113 655.4741473496684 656.057995220918 0 0 0
843 1 1 0 667.9896416223129 654.694374243274 679.0084764895004 0 0 0
408 1 1 0 666.7925721055842 678.9640032014804 654.747142372991 0 0 0
184 1 1 0 663.1407226440493 674.2355182738623 674.2144817166828 0 0 0
65 1 1 0 679.3941525140395 666.6107589794356 653.4994581999189 0 0 0
186 1 1 0 668.5720776184114 674.93956948044 665.3322743241933 0 0 0
187 1 1 0 669.7806432668906 674.826322962754 664.6665872811011 0 0 0
188 1 1 0 670.2804456002684 675.5041321850102 663.5740555751423 0 0 0
189 1 1 0 671.5001584096856 676.387753663671 661.0954471065595 0 0 0
190 1 1 0 667.8947468071884 658.4405576819472 670.7786444227786 0 0 0
191 1 1 0 658.0699121572828 655.962185946173 667.2649224070944 0 0 0
192 1 1 0 657.7473759564936 655.0467430698559 668.310781341434 0 0 0
193 1 1 0 656.6661632758719 654.8191270349225 669.1374006055403 0 0 0
194 1 1 0 678.2846813346948 654.9635556328677 668.127657516173 0 0 0
195 1 1 0 676.1938241603212 656.2456936194432 667.8396532411812 0 0 0
196 1 1 0 669.1131046318661 659.9575290027901 669.3846889345215 0 0 0
197 1 1 0 668.6778215672604 661.1312931412069 670.0230119123482 0 0 0
198 1 1 0 672.9454261655883 660.0360522314038 667.8921767482115 0 0 0
199 1 1 0 676.9612224096674 657.4265909580706 667.6834908434449 0 0 0
200 1 1 0 674.9330990123685 658.7107270854234 667.661431138747 0 0 0
201 1 1 0 677.1858700464833 662.1573592474464 667.1505838598903 0 0 0
202 1 1 0 673.0456603388922 662.4764119267668 668.0546464886164 0 0 0
203 1 1 0 678.5263258475584 659.7592048918702 667.2898268750174 0 0 0
204 1 1 0 674.4298340162777 662.4287351708925 667.8307788343404 0 0 0
205 1 1 0 670.9012582188793 663.676531763733 668.4312980320196 0 0 0
206 1 1 0 668.4124090576065 663.5098374093712 669.9063265852626 0 0 0
207 1 1 0 670.2449230003471 662.454102211444 668.7544045404584 0 0 0
208 1 1 0 677.1179803435721 659.7890928445672 667.4365842815677 0 0 0
209 1 1 0 679.1204612911603 658.5062572259535 667.5449381768129 0 0 0
210 1 1 0 672.2845058542083 661.2554313725582 668.0406612359492 0 0 0
211 1 1 0 678.377168921913 657.3552448936946 667.851182860451 0 0 0
212 1 1 0 678.5974578266494 662.1323418170354 666.9663674077104 0 0 0
933 1 1 0 673.9822683178786 652.7643116489662 667.9852945663872 0 1 0
2045 1 1 0 652.3503696387405 654.9150321507076 667.9912505657772 1 0 0
215 1 1 0 672.2842545425873 663.6213092719937 668.3583340108944 0 0 0
216 1 1 0 675.270693489354 663.5344339875546 667.6757674294735 0 0 0
217 1 1 0 676.6869221237728 663.4672839081402 667.5054863882675 0 0 0
218 1 1 0 675.0029414365953 661.1746241105077 667.6372619075304 0 0 0
219 1 1 0 676.4171817568114 661.0151632302072 667.3458197455446 0 0 0
220 1 1 0 679.3039220533013 660.9276585657923 667.0840920612741 0 0 0
61 1 1 0 673.8077045153118 668.6890663147282 654.5497134848194 0 0 0
222 1 1 0 678.9915771451239 663.4843570127377 666.9064740678148 0 0 0
223 1 1 0 674.3345030295934 659.9373716448581 667.7717548531547 0 0 0
224 1 1 0 669.1134694614997 662.3525362744543 669.5869498509803 0 0 0
225 1 1 0 676.3087951135994 658.6429006096621 667.543973507848 0 0 0
226 1 1 0 670.9187887205304 661.2692168693501 668.4333852993516 0 0 0
227 1 1 0 679.0473218224126 656.1700748790097 668.1039064108166 0 0 0
228 1 1 0 670.2594747006531 660.0290032529939 668.5897016527686 0 0 0
229 1 1 0 672.1932578586315 658.8243320012477 667.7910146794585 0 0 0
230 1 1 0 674.1714855064766 657.5583092891292 667.5302100821954 0 0 0
451 1 1 0 674.5844703226858 666.2328815014683 654.1570726082757 0 0 0
232 1 1 0 670.8107753713502 658.8822439232795 667.9739242137902 0 0 0
392 1 1 0 665.0588364702315 673.743646981668 668.0745913707124 0 0 0
234 1 1 0 667.1977678687265 656.066397846597 675.1556539114089 0 0 0
177 1 1 0 674.8682200044747 670.7854774107872 654.2011176503099 0 0 0
236 1 1 0 667.4437828331792 656.1380824809806 670.0979547569925 0 0 0
237 1 1 0 668.484338468743 663.9954940632745 654.5741779145453 0 0 0
420 1 1 0 668.8043352459154 673.6882558114938 676.3353555337318 0 0 0
239 1 1 0 653.8483334998485 678.2858422568662 669.4445029087422 0 0 0
240 1 1 0 669.99931690055 657.695731078364 667.9623767625884 0 0 0
241 1 1 0 658.4997773383938 676.3189961591077 672.6864666536177 0 0 0
242 1 1 0 665.8118002817569 677.2102808571149 657.3510829987086 0 0 0
243 1 1 0 672.0411552754633 656.4639957779603 667.4825313256227 0 0 0
244 1 1 0 659.3485598101346 675.11894050075 669.1981297859155 0 0 0
415 1 1 0 671.1038817270107 677.4641005849294 656.6519871704884 0 0 0
246 1 1 0 667.9907791901372 675.8442592066878 660.0054219893909 0 0 0
235 1 1 0 671.5817561358127 668.0507922602648 654.422636358087 0 0 0
407 1 1 0 662.9970861590712 674.4169128344361 671.733301683397 0 0 0
249 1 1 0 669.8942603355611 655.2818248456857 667.7279910700662 0 0 0
250 1 1 0 669.4136160540645 675.8419618704049 660.0436239801891 0 0 0
251 1 1 0 665.9092396649431 653.0417795631192 655.331382552998 0 0 0
252 1 1 0 667.1489081099268 654.7446991849401 670.4451140434246 0 0 0
253 1 1 0 676.4208673306581 673.8598273826221 655.3836823246892 0 0 0
254 1 1 0 665.3837343683798 678.7511984278246 654.4975563111622 0 0 0
423 1 1 0 654.9426853685919 669.3318917791162 653.9626446016462 0 0 0
57 1 1 0 679.5656800752887 669.3471506953321 653.898084773686 0 0 0
271 1 1 0 665.4194510854475 676.918730990237 677.7349494239585 0 0 0
258 1 1 0 671.5643678681022 676.1460023957723 657.0563180033249 0 0 0
436 1 1 0 673.493893614212 672.6125446795234 653.5047998763869 0 0 0
55 1 1 0 664.2397292872962 677.672287602853 677.4454916979954 0 0 0
261 1 1 0 669.266343760675 679.6697561922305 656.1186864706488 0 0 0
337 1 1 0 664.7625980281193 679.7409949963094 653.6939718855743 0 0 0
263 1 1 0 664.7229409726303 677.2320111036789 656.3822486071016 0 0 0
264 1 1 0 663.4464841416866 677.370755630926 654.2093747413526 0 0 0
391 1 1 0 666.4025053117932 673.0760730247437 670.4630334870859 0 0 0
266 1 1 0 672.1539567278729 675.5033838192832 655.940571995119 0 0 0
267 1 1 0 660.1165377587524 653.8986640967289 662.666695009911 0 0 0
268 1 1 0 659.6958298489417 654.5218553754812 663.8041401813948 0 0 0
269 1 1 0 659.0690000687295 655.04016057708 664.8890609191449 0 0 0
270 1 1 0 658.6610949071109 655.4786972347606 666.0940162667292 0 0 0
13 1 1 0 674.5138958523536 679.9221950541084 662.0353558815972 0 0 0
1113 1 1 0 652.337471646234 679.7088856394737 668.1279546253435 0 0 0
399 1 1 0 664.9955467905816 673.462136383607 670.4805366997233 0 0 0
56 1 1 0 673.6203740327513 671.222806242132 653.7424350061121 0 0 0
893 1 1 0 659.0454598116131 663.9446941646208 653.1032781392104 0 0 1
1443 1 1 0 660.0485115607072 677.6427912512021 674.2207837024398 0 0 0
277 1 1 0 678.3587081670523 665.6260573655409 667.6875641711106 0 0 0
278 1 1 0 677.8985079294677 664.3417337736493 667.3491408849744 0 0 0
279 1 1 0 668.7534250479628 667.0314728505082 667.821031987237 0 0 0
280 1 1 0 667.907371927453 667.898711460769 668.4376869404805 0 0 0
395 1 1 0 667.6369542791582 656.5358452609436 677.4963926942589 0 0 0
282 1 1 0 659.5637384996681 675.4899573848876 666.0882674824529 0 0 0
283 1 1 0 660.5729302732042 674.5181380789492 666.2421835245707 0 0 0
284 1 1 0 659.8782471335777 676.7299385583382 665.4495555631919 0 0 0
285 1 1 0 662.1229382087779 677.1539008492148 664.4411845279004 0 0 0
286 1 1 0 661.8383294093973 676.196702449813 667.666495126591 0 0 0
287 1 1 0 661.2387825555746 677.1847311694667 665.5156567603664 0 0 0
288 1 1 0 662.000165974717 677.3270610271819 666.8057010926618 0 0 0
289 1 1 0 663.3763652872468 677.6009348845106 666.5637719650359 0 0 0
290 1 1 0 667.2545679083769 675.1823960231951 664.8567921926509 0 0 0
291 1 1 0 673.540328638536 675.1709150639658 655.8194444342253 0 0 0
292 1 1 0 671.9399888480008 654.0613264039977 667.6574630766894 0 0 0
293 1 1 0 675.6316167354718 673.026118981416 654.5568842890192 0 0 0
294 1 1 0 667.453093823224 657.7370778295217 673.4536691756556 0 0 0
295 1 1 0 669.5345931087543 665.9348835432687 667.8943011049666 0 0 0
296 1 1 0 670.1579257622614 664.7785942879939 667.9591781793127 0 0 0
262 1 1 0 659.6204142812625 656.1611105489101 654.2056504912613 0 0 0
119 1 1 0 666.3922329133002 678.9393970998287 678.5747410372354 0 0 0
299 1 1 0 667.8870189659301 675.5029688464275 662.3831842504893 0 0 0
124 1 1 0 666.1398999808822 661.2749435769078 653.9499774672481 0 0 0
301 1 1 0 673.746869296902 678.913589342214 662.3911274970359 0 0 0
302 1 1 0 668.5439997015183 658.6866108649655 669.6082988350594 0 0 0
1440 1 1 0 676.7333653313856 652.6572124816902 668.3898642374804 0 1 0
1343 1 1 0 668.4835988798596 652.7876820795318 667.782114121052 0 1 0
401 1 1 0 662.1049637312077 673.4423191635613 668.0583714565745 0 0 0
298 1 1 0 662.0149118837213 656.2658891478227 654.8991017707366 0 0 0
430 1 1 0 655.1024318992012 677.7540548955537 669.6216175401926 0 0 0
429 1 1 0 667.649657861462 675.3526502643948 678.5767889255317 0 0 0
182 1 1 0 669.7202818920276 679.8205622698181 657.5596635109271 0 0 0
419 1 1 0 669.417081584693 673.2849769500615 675.0989082464231 0 0 0
410 1 1 0 655.2036933928437 657.8232013377864 667.6401584737986 0 0 0
529 1 1 0 667.9931939663051 656.1061109124322 678.813998406486 0 0 0
175 1 1 0 653.6964475778636 653.4800016556288 669.4104048918579 0 0 0
428 1 1 0 652.9468134409954 678.5031749219925 670.4852470070823 0 0 0
315 1 1 0 666.8613096908321 667.6553902218463 669.2688661603603 0 0 0
316 1 1 0 666.6086672421651 666.8456626903301 670.3174616101915 0 0 0
317 1 1 0 666.9074123972728 665.5664925872189 670.4595182490027 0 0 0
318 1 1 0 667.798293038672 664.6212557801412 670.307048338405 0 0 0
319 1 1 0 661.711959203336 676.0758387511521 669.0876434306524 0 0 0
116 1 1 0 677.0897308507417 676.1220314126349 679.3222362844864 0 0 0
321 1 1 0 654.6601923589873 668.0966724875711 654.4687267042691 0 0 0
273 1 1 0 667.1600967588186 660.2721272793807 653.8865502263571 0 0 0
323 1 1 0 669.3778234329993 675.5390655012208 662.4188221583165 0 0 0
324 1 1 0 663.2248376783737 677.0450499735795 676.6159103948297 0 0 0
325 1 1 0 679.0118759595116 670.9685586628708 671.2599817022447 0 0 0
326 1 1 0 677.8518605559746 672.2934737029489 673.0179632921048 0 0 0
327 1 1 0 677.8679166579082 671.25839911796 672.0644206140398 0 0 0
1098 1 1 0 660.5742521433108 678.1495002586373 675.5177377845897 0 0 0
329 1 1 0 678.7807289421431 669.8452480690574 670.4021498297625 0 0 0
330 1 1 0 675.5515114402936 670.616486604174 672.0132786517321 0 0 0
975 1 1 0 666.8672208503007 652.4129470156472 669.8397028850342 0 1 0
332 1 1 0 677.4409728996859 669.357261915018 670.7934358983407 0 0 0
333 1 1 0 676.8761977615101 670.2734959377558 671.7544894841998 0 0 0
334 1 1 0 678.3816649524488 673.8087244053797 675.2973954778626 0 0 0
148 1 1 0 675.9778950435627 671.6485842356888 654.2919277209048 0 0 0
336 1 1 0 676.1454471407351 653.8628980749365 668.0281354287192 0 0 0
398 1 1 0 670.464857467124 665.4658655667781 654.8332409609013 0 0 0
338 1 1 0 661.5956558771514 653.0078565636642 656.3227461373293 0 0 0
424 1 1 0 656.1735690554159 671.3666380807399 653.6656027153518 0 0 0
340 1 1 0 669.5427731845841 677.7799995334425 658.8039257059414 0 0 0
341 1 1 0 660.6674270138599 675.1857229635599 669.5788298345191 0 0 0
342 1 1 0 673.6483980740732 674.5691143157709 654.5543759238049 0 0 0
1131 1 1 0 653.7032191190899 679.1605232839111 665.7013305319773 0 0 0
344 1 1 0 678.8137844790427 672.8012893343179 654.907696599262 0 0 0
345 1 1 0 667.5611267743011 678.1056639510808 655.6021030165359 0 0 0
346 1 1 0 659.2583318062124 674.3951167052662 668.0030950402552 0 0 0
397 1 1 0 664.5185292564008 674.0504645658754 674.0982217379506 0 0 0
348 1 1 0 674.8400650620999 656.3353210047106 667.5580181287343 0 0 0
349 1 1 0 677.2144186197349 669.5697284358014 654.2946743096176 0 0 0
350 1 1 0 670.4172367682926 676.4220535837925 654.5521519778277 0 0 0
351 1 1 0 671.8379076189107 665.6765459586954 654.6125707410333 0 0 0
432 1 1 0 667.6152264783477 656.5308316871061 653.6810748230815 0 0 0
353 1 1 0 677.0847610006306 673.6437017588074 674.8714970299154 0 0 0
354 1 1 0 676.7379787565012 672.8597681402264 673.6935286560439 0 0 0
355 1 1 0 676.3519380517939 674.8496158086216 676.894615575612 0 0 0
356 1 1 0 676.0633290656134 674.1657578423552 675.6925025908506 0 0 0
357 1 1 0 675.4095676584008 675.527311513053 677.6475018232363 0 0 0
358 1 1 0 674.1418430832891 675.4258853335191 677.0854637537411 0 0 0
359 1 1 0 675.3972942608196 672.5445570614272 673.4362232756185 0 0 0
360 1 1 0 674.7305501855541 673.9535598058199 675.2771355253057 0 0 0
361 1 1 0 674.3619470154755 673.1440183288297 674.2197473183112 0 0 0
362 1 1 0 673.7731684621161 674.4003613497274 676.2046133488603 0 0 0
363 1 1 0 672.4390505737694 674.0263637136586 675.9463833900593 0 0 0
364 1 1 0 674.9819774566578 671.7981242957459 672.3064305693032 0 0 0
365 1 1 0 672.9670436429593 672.9883842072155 673.8059763625643 0 0 0
366 1 1 0 672.0108537501958 673.3083303347946 674.7875694617144 0 0 0
367 1 1 0 673.8013935830395 672.2405958499418 671.7569601427982 0 0 0
368 1 1 0 672.632937600664 672.5645295865426 672.4518407449104 0 0 0
369 1 1 0 670.6931516239863 672.9817801193942 674.4614640388812 0 0 0
370 1 1 0 657.6306798725686 657.3237673554125 667.5415400459825 0 0 0
371 1 1 0 663.5454290295434 675.6798204769948 676.1012547247504 0 0 0
418 1 1 0 672.2907715180406 674.5800778118823 653.8996045081594 0 0 0
417 1 1 0 660.9537052829291 674.1891432602556 670.5743016854682 0 0 0
374 1 1 0 677.6318375556473 674.6405326659188 677.4401294749634 0 0 0
375 1 1 0 667.0920543289384 673.3275568306916 674.0963528217849 0 0 0
376 1 1 0 675.9079894799038 676.4067305475019 678.5935097468865 0 0 0
377 1 1 0 661.8504203774133 675.0048726245727 666.8406449765788 0 0 0
378 1 1 0 663.0186016941625 674.122830686651 667.0255645304546 0 0 0
379 1 1 0 664.2697447681929 673.4633492932988 669.2493427610974 0 0 0
380 1 1 0 671.2626482530409 672.5014705048279 672.0813775465062 0 0 0
381 1 1 0 670.4247571208517 672.4402533614704 673.1854484971406 0 0 0
382 1 1 0 670.5551997241702 672.3938525762428 670.8351240497658 0 0 0
383 1 1 0 669.0296363349047 672.4952949737084 672.9584467596829 0 0 0
384 1 1 0 668.4191796507646 672.9619002006053 674.1161259453675 0 0 0
385 1 1 0 669.1384349790127 672.362624969262 670.5691071091646 0 0 0
386 1 1 0 668.3308245889839 672.3449537214207 669.3703836852163 0 0 0
387 1 1 0 668.3596200429835 672.5628929682789 671.7275150730065 0 0 0
388 1 1 0 667.0458092061074 672.8952166085736 671.6587719387287 0 0 0
389 1 1 0 667.0716834130583 672.9182543994792 669.2887090256402 0 0 0
390 1 1 0 666.3606885433654 673.2500387393642 668.0958901786416 0 0 0
147 1 1 0 668.2192485048475 680.1024512550991 657.7700201440132 0 0 0
76 1 1 0 678.3153584044554 664.622448819272 652.4086002503993 0 0 0
281 1 1 0 663.2974698395683 656.0887023093709 654.2768262718714 0 0 0
906 1 1 0 656.6111333358441 674.4531370797462 652.7728428400226 0 0 1
347 1 1 0 666.2105471561036 656.4155544895074 653.9825741559782 0 0 0
502 1 1 0 668.4769602791189 660.7374968866527 653.5829057933653 0 0 1
4 1 1 0 658.7153403169756 652.7799321963456 653.6982196909286 0 0 0
977 1 1 0 664.0748377486137 678.8084387709026 678.2965120719134 0 0 0
713 1 1 0 672.5151926597883 665.0562319904515 653.5666634718156 0 0 1
114 1 1 0 660.9444982981576 656.8271239532295 654.2138994005203 0 0 0
245 1 1 0 679.1956054286941 674.8175978581813 679.3138856703783 0 0 0
905 1 1 0 659.047740336323 660.4399773085028 652.1340604754706 0 0 1
414 1 1 0 665.6499261639111 663.6957984034132 654.3556885526091 0 0 0
412 1 1 0 665.4904877330996 655.024943416101 653.9797750380453 0 0 0
297 1 1 0 666.4494702204771 654.0732125035161 654.6485164414479 0 0 0
84 1 1 0 658.4518743105623 654.1828561752105 653.7323086404024 0 0 0
825 1 1 0 657.8510700027736 667.92542577037 653.7346217680475 0 0 1
85 1 1 0 666.5519689944971 662.5580495175075 654.419957606154 0 0 0
180 1 1 0 668.4517893113571 652.9007671795345 654.5182872929192 0 0 0
453 1 1 0 667.8876690307051 662.8751661499393 654.111671249119 0 0 0
1116 1 1 0 653.8733628867407 678.3529914949206 666.8315734831045 0 0 0
95 1 1 0 661.8473986320666 658.7831869438023 652.962982503216 0 0 0
183 1 1 0 663.7347686188937 657.0885610148409 653.4868399764897 0 0 0
322 1 1 0 679.187518937414 672.8879789147217 673.2278401343173 0 0 0
132 1 1 0 664.2215639325962 659.2579425625873 652.9948491757918 0 0 0
454 1 1 0 672.4541974154863 670.4721184008505 653.6039941338312 0 0 0
339 1 1 0 660.810745976295 657.9920802624476 653.4045983193216 0 0 0
534 1 1 0 658.2214420083166 666.5538359179104 653.899254141925 0 0 1
785 1 1 0 669.2425550755959 658.4203506944235 653.0220955979769 0 0 1
755 1 1 0 657.7005279412629 664.3134817581106 653.1749025320076 0 0 1
343 1 1 0 665.4283359915271 658.6008741348788 653.1420966197065 0 0 0
466 1 1 0 663.9587992020316 679.5635122049856 652.589752717869 0 0 1
335 1 1 0 677.0343833136378 665.2441745113698 652.5259066951674 0 0 0
767 1 1 0 668.3447554506907 666.3300936549688 654.0118602049696 0 0 1
909 1 1 0 667.0932793633644 652.512928911384 678.4157481775699 0 0 0
426 1 1 0 655.9051053333714 665.92733109243 653.6595273959845 0 0 0
145 1 1 0 663.1879514517069 658.337216954665 653.1455744739982 0 0 0
645 1 1 0 670.3804101544318 667.68939227392 653.8654342726794 0 0 1