LAMMPS data file via write_data, version 2 Aug 2023, timestep = 50000, units = metal

8480 atoms
1 atom types

631.2972919622517 732.8827080377422 xlo xhi
631.0969871755492 733.7920128244511 ylo yhi
631.1095624432303 733.7794375567701 zlo zhi

Masses

1 12.0107

Atoms # full

1 1 1 0 668.4830182915799 656.0982595563418 681.4292660829591 0 0 0
901 1 1 0 656.5187497416226 635.4177478346907 635.2717154031751 0 0 0
3 1 1 0 671.2077229850505 659.8917509779005 681.9264853451762 0 0 0
974 1 1 0 637.8964786126672 669.797609768983 654.4539641898502 0 0 0
439 1 1 0 632.5633867842273 659.3865249478636 654.4699311429575 0 0 0
6 1 1 0 650.2110170491418 633.9207274944262 633.2908545227366 0 0 0
7 1 1 0 641.903187890165 666.3771823157485 651.428080153791 0 0 0
666 1 1 0 633.4153941551662 660.7914642061784 656.1845721961366 0 0 0
9 1 1 0 670.8902016942149 633.0183029289519 644.7385186135807 0 0 0
916 1 1 0 677.7292809451188 631.177772105182 654.0336347334838 0 0 0
1083 1 1 0 653.508635868232 640.7359139274162 632.1615563306385 0 0 0
12 1 1 0 675.471222274732 654.9131046470656 681.4238873979305 0 0 0
13 1 1 0 639.2918034871639 632.0984168671876 640.766027838528 0 0 0
4795 1 1 0 632.1437856628387 658.1254493468957 660.3533572815519 1 0 0
15 1 1 0 642.7149650647756 668.8661011024025 654.3614980487059 0 0 0
516 1 1 0 654.4803037801669 633.4421888460342 680.3726211520272 0 0 0
17 1 1 0 644.2120669824029 676.2461620587962 654.3046665657236 0 0 0
517 1 1 0 633.9625104040341 661.434064765921 653.9137753989838 0 0 0
924 1 1 0 633.3381564373129 663.1031414693202 657.1951269775838 0 0 0
1075 1 1 0 654.6685377623305 638.1825407441772 632.9727172505523 0 0 0
21 1 1 0 640.79891562723 669.7496810377653 653.717749669729 0 0 0
22 1 1 0 670.5905855993722 658.4795425006321 679.979156694304 0 0 0
355 1 1 0 633.9073281114352 660.1874072383426 657.6688356338622 0 0 0
564 1 1 0 634.6459971821723 664.6436884078755 653.4962864167533 0 0 0
25 1 1 0 657.3750725313691 639.0078851962102 634.8474919836628 0 0 0
26 1 1 0 672.4917644385813 653.4106063884167 679.893032971309 0 0 0
895 1 1 0 674.2977012578374 656.8074230221897 680.6402073493877 0 0 0
28 1 1 0 648.2503925812449 667.8098313181569 653.3681886238817 0 0 0
29 1 1 0 643.126010098679 673.4180353128777 652.2666017918431 0 0 0
964 1 1 0 653.1194547260412 640.3040090588368 633.5462880080543 0 0 0
16 1 1 0 633.5230312314736 660.3882353058349 654.7473738417823 0 0 0
984 1 1 0 637.2093474108824 664.0656186262404 655.9196522995552 0 0 0
33 1 1 0 660.2787249877624 660.864302621356 678.9857476413883 0 0 0
922 1 1 0 636.2700551814369 666.0026987047266 654.8845279294356 0 0 0
1046 1 1 0 640.5778123937926 666.8152552026625 651.7238234698416 0 0 0
996 1 1 0 657.6470369667553 638.1770967101625 635.9925679973231 0 0 0
37 1 1 0 659.349454207991 642.2585590397767 634.301486066245 0 0 0
38 1 1 0 641.8668244308504 677.7898117085824 651.8316789461805 0 0 0
1101 1 1 0 633.5085909013874 661.1855355867594 658.8123979815709 0 0 0
40 1 1 0 638.3919590027455 632.511843878545 638.063784522086 0 0 0
1207 1 1 0 648.971480030758 632.7133639483269 631.7200656984625 0 0 0
900 1 1 0 649.751964561662 636.8198203921979 635.4644719908928 0 0 0
43 1 1 0 635.4964485653607 662.3535854021785 656.531039232538 0 0 0
44 1 1 0 640.6453381316334 631.8468948717064 638.2171993567603 0 0 0
45 1 1 0 641.9185032538651 664.3767069602364 653.0286242257278 0 0 0
1197 1 1 0 641.8626988398111 679.5745115304551 658.8133075477132 0 0 0
47 1 1 0 638.0459522740108 632.6531557889034 636.7278114909094 0 0 0
48 1 1 0 671.939412316553 658.1567095158074 679.8499209699064 0 0 0
49 1 1 0 644.7563057999034 673.968500188008 656.0106286114064 0 0 0
3022 1 1 0 640.4546443126005 680.96797196397 656.939023464792 0 0 0
51 1 1 0 642.5316330525135 670.3567280942269 652.1383488633765 0 0 0
52 1 1 0 644.9064279806951 672.6319199942305 656.7040873752644 0 0 0
957 1 1 0 634.01930414594 664.4958050436635 654.7996850684367 0 0 0
54 1 1 0 673.5312885440127 654.4533779489044 679.9248202141623 0 0 0
943 1 1 0 632.5666389066448 657.8198666223072 657.5227257372543 0 0 0
56 1 1 0 671.0006614567031 632.6576658252378 641.7730182664534 0 0 0
57 1 1 0 671.1312406657054 653.5114224268359 679.3922325764389 0 0 0
58 1 1 0 655.5586409030723 665.192829578243 659.1075950221965 0 0 0
59 1 1 0 639.724586978355 633.1204176180095 638.6025001405518 0 0 0
60 1 1 0 663.4217605448553 658.7925291324772 680.0203418292657 0 0 0
891 1 1 0 651.6487146381365 638.9549701907357 635.2304897303343 0 0 0
883 1 1 0 653.8827439956707 636.4509632492773 631.6630648742442 0 0 0
2255 1 1 0 639.4108596931806 680.9369643318091 655.9155909308164 0 0 0
921 1 1 0 639.9735240041199 666.1964909838108 654.0681062351882 0 0 0
1132 1 1 0 644.8804088103037 679.0764167255062 655.5850131972353 0 0 0
1000 1 1 0 669.4825702599276 631.896228379056 648.1298699923834 0 0 0
67 1 1 0 658.3398014972779 636.2150280091756 632.8437121454732 0 0 0
746 1 1 0 674.7668601994317 631.6221531440652 643.3082262136745 0 0 0
69 1 1 0 670.3184642101764 659.4997672317689 680.8704735640608 0 0 0
3015 1 1 0 645.0364823735938 680.1948776895642 657.7344442330889 0 0 0
104 1 1 0 645.3473360863638 633.5148451271735 632.2856858703401 0 0 0
1198 1 1 0 633.7733685786723 631.5874482921156 638.4444619601841 0 0 0
73 1 1 0 648.2226007018397 631.9043723042818 639.7868616373466 0 0 0
4504 1 1 0 631.5399685279775 661.9034837912768 657.7970262953398 1 0 0
75 1 1 0 649.7143514983323 665.7055138113695 658.6624563284647 0 0 0
226 1 1 0 661.8521655535068 631.1149129036672 682.0067523871696 0 0 0
23 1 1 0 632.5268928017815 662.8455711229553 656.0393577304939 0 0 0
78 1 1 0 643.854310758685 672.3630100617034 652.8822564686121 0 0 0
526 1 1 0 660.5707202404885 631.7287503053146 680.1339447174115 0 0 0
779 1 1 0 671.0171001658379 631.2906168929235 650.0546617500502 0 0 0
81 1 1 0 639.0081220257574 673.777669724394 654.0747872909238 0 0 0
39 1 1 0 659.6509735620518 640.53159854615 631.9813062391236 0 0 0
83 1 1 0 639.1958677997976 632.4585980864854 635.9602138960729 0 0 0
84 1 1 0 639.634638262095 633.2664875381541 640.1421879568337 0 0 0
85 1 1 0 638.317405405412 667.0138650446464 655.5046870398849 0 0 0
86 1 1 0 654.1665651269999 640.3312934703274 634.6035725644854 0 0 0
87 1 1 0 652.50385099539 634.428374034146 640.221709384542 0 0 0
88 1 1 0 664.8045736640297 660.860025578823 678.7504797382863 0 0 0
89 1 1 0 654.2921152535374 668.706223516915 657.1255252515406 0 0 0
90 1 1 0 644.8167593452656 670.107238830401 656.0471021662289 0 0 0
91 1 1 0 662.1166936177988 638.2715510423524 633.7036498319624 0 0 0
1082 1 1 0 653.6070405101729 637.421508624889 632.577072333201 0 0 0
93 1 1 0 670.4256258242741 653.7541627935143 681.6062837137267 0 0 0
94 1 1 0 670.9885216326453 654.8262551460955 680.9013606656441 0 0 0
1045 1 1 0 652.9043417085401 635.5761672509698 631.3586694611756 0 0 0
96 1 1 0 653.835716026388 635.610997177523 637.1482026419777 0 0 0
97 1 1 0 636.7656684982853 632.2011259439441 636.2140854490391 0 0 0
98 1 1 0 640.3988807790648 631.8001534381601 636.5335736265648 0 0 0
1074 1 1 0 660.6691785095386 641.6741909925983 634.566652959889 0 0 0
100 1 1 0 646.0990898131763 631.8322605185964 640.830130366318 0 0 0
857 1 1 0 643.4353617673681 677.1300927929503 653.5606530356378 0 0 0
102 1 1 0 641.9054700360614 671.0011722884572 656.9586882944457 0 0 0
103 1 1 0 653.5136463544013 632.7067403824342 634.2943798940967 0 0 0
305 1 1 0 657.9113011593105 632.5493237989111 679.2436295925688 0 0 0
105 1 1 0 643.0676472672562 675.6641918201757 657.6417611078149 0 0 0
4797 1 1 0 631.3932020289551 660.7560577757811 659.8798703435796 1 0 0
1052 1 1 0 662.0410138512223 639.7809652967883 633.8939344654248 0 0 0
1081 1 1 0 642.8624748339344 631.2992148823155 635.3276410319879 0 0 0
109 1 1 0 640.2170611181655 677.7386706086212 654.0400012842994 0 0 0
110 1 1 0 642.6994400978646 667.4647188997153 651.0078067944899 0 0 0
111 1 1 0 660.8448194647023 640.2916862454067 634.5085476805641 0 0 0
112 1 1 0 674.9818888478637 656.2082326234149 681.7180367763497 0 0 0
1210 1 1 0 650.181950533384 633.3667460854905 632.0939097393435 0 0 0
1037 1 1 0 641.141333560425 674.2341622927338 654.6605881071903 0 0 0
1124 1 1 0 641.470391899267 678.1597397972287 659.2084578326094 0 0 0
850 1 1 0 640.9983419726075 679.8032379801898 653.0086252188714 0 0 0
899 1 1 0 641.3892085566871 678.5202044620252 653.6841994847103 0 0 0
863 1 1 0 649.0191613946809 631.3806715261397 632.1782339584771 0 0 0
994 1 1 0 674.6530509953815 633.0710241498671 650.984504483194 0 0 0
120 1 1 0 647.3520578167157 663.680885518315 658.3123732744973 0 0 0
1001 1 1 0 649.0596415703225 634.2643081173197 633.9476480897363 0 0 0
122 1 1 0 646.4358003416364 662.9681963555347 657.4145435405208 0 0 0
605 1 1 0 651.5727975445046 632.8557845047802 631.550938476967 0 0 0
123 1 1 0 658.0174195352178 634.2912745620413 680.822270700717 0 0 0
944 1 1 0 639.6962685917445 675.2499073401226 655.7740191979284 0 0 0
126 1 1 0 670.696010756211 636.106609416615 642.9011288219568 0 0 0
127 1 1 0 644.2806066857293 635.655701818201 639.8545639877835 0 0 0
128 1 1 0 664.2646604486672 652.458899977362 682.4089021114604 0 0 0
1053 1 1 0 661.4953178229263 643.9385884239398 633.919014086367 0 0 0
130 1 1 0 645.6426454620964 671.4853149195673 655.9026556350051 0 0 0
2527 1 1 0 643.0343561636319 681.5756504614803 653.2390888352779 0 0 0
1098 1 1 0 649.1909532840515 634.1535722919267 635.3594213832874 0 0 0
3011 1 1 0 644.3302564582199 682.0458885406534 653.7059380983112 0 0 0
1152 1 1 0 632.976319581141 658.9996420353268 659.5614294722081 0 0 0
413 1 1 0 652.6073239272997 634.0526643403232 682.0184943459867 0 0 0
958 1 1 0 672.7953329980123 632.7215021365757 647.2472032562802 0 0 0
137 1 1 0 644.0431772644783 665.3110536292895 652.2635279092924 0 0 0
143 1 1 0 632.9462287356223 663.4525390129387 654.8717175783975 0 0 0
2878 1 1 0 645.0885574397204 680.9121843904592 654.3247037127535 0 0 0
140 1 1 0 643.9306195425451 633.5054887920555 641.4290870225807 0 0 0
1065 1 1 0 638.9069219401891 632.186709706314 634.5579530376913 0 0 0
142 1 1 0 662.7553138355343 662.6760025489064 679.2493891941531 0 0 0
1209 1 1 0 647.7876577527035 633.3969849970844 632.1266251608077 0 0 0
890 1 1 0 640.529069211572 670.6943640812668 654.7034159898842 0 0 0
145 1 1 0 647.14063592293 663.5604214756569 653.6746814623306 0 0 0
146 1 1 0 672.3644405022063 632.4091001343937 642.215821875662 0 0 0
147 1 1 0 642.1564289371663 635.0706090799614 635.6589994165752 0 0 0
148 1 1 0 670.7250103439026 654.9645135395676 679.4445405650488 0 0 0
149 1 1 0 640.4073104460713 678.3168335297071 656.3834661115934 0 0 0
150 1 1 0 637.0226965886837 667.1433398980224 654.9175415295815 0 0 0
151 1 1 0 648.4225302918338 664.2277593661893 653.2995312891026 0 0 0
152 1 1 0 646.824838801531 669.4534005771939 655.3701794969622 0 0 0
153 1 1 0 654.0430092335719 639.6475987767167 635.9686965664441 0 0 0
154 1 1 0 652.0326064955173 633.3311529320121 639.3855703555621 0 0 0
889 1 1 0 666.1659679692659 639.0462224030791 631.5495264107215 0 0 0
1134 1 1 0 649.3601095260834 636.653824279193 634.0874820847645 0 0 0
157 1 1 0 657.5970127352076 634.4155008808935 633.3569921629539 0 0 0
158 1 1 0 677.0376734456439 632.7979487140597 648.039133126519 0 0 0
159 1 1 0 669.2563358896213 657.1243214125328 680.9755821849769 0 0 0
160 1 1 0 677.4987747195274 631.7204337016966 648.677995942174 0 0 0
161 1 1 0 678.7825557528905 631.7987930612029 649.3984010524719 0 0 0
162 1 1 0 655.8421311934397 662.7875061889466 659.0112033194043 0 0 0
163 1 1 0 668.0514484523509 654.0375968710595 678.5454339138511 0 0 0
164 1 1 0 666.8048014401838 661.4236436469557 680.5677091948253 0 0 0
165 1 1 0 650.4303749516603 663.337237504484 656.2387359658186 0 0 0
166 1 1 0 641.186068270759 672.977299602012 654.0241141140867 0 0 0
1027 1 1 0 644.8455653239108 679.5460614408283 654.2033532084998 0 0 0
1067 1 1 0 640.9612489431903 631.2334914279102 634.216200472698 0 0 0
169 1 1 0 678.5819751097922 632.1821773644058 646.5571844700072 0 0 0
948 1 1 0 676.3436136001328 631.326315785987 653.5242412196035 0 0 0
171 1 1 0 679.2779306211947 631.5474693931191 647.7881881532692 0 0 0
1164 1 1 0 654.7903266502972 641.4094165672748 631.9921613732984 0 0 0
173 1 1 0 645.7531469224298 670.5007772530827 653.6082732160136 0 0 0
174 1 1 0 651.3979694892181 636.5752762468009 640.3148296759391 0 0 0
886 1 1 0 640.1907381262664 680.6201441336733 653.8100328241248 0 0 0
191 1 1 0 653.8894183549266 634.3018501069454 681.3593344935556 0 0 0
177 1 1 0 650.7245974422434 663.8275789160137 654.8824627821485 0 0 0
178 1 1 0 641.9743505233843 634.0033662398303 637.5642335936258 0 0 0
179 1 1 0 647.8238022050928 665.0160493306795 655.7041680864828 0 0 0
180 1 1 0 647.745172124143 635.0158272936196 640.9367390795596 0 0 0
63 1 1 0 656.0897160331614 635.3005186946887 681.6436719879706 0 0 0
2567 1 1 0 644.3419579664546 681.5154606430544 655.7106720534715 0 0 0
183 1 1 0 648.066740124881 635.9149077415788 638.4611401925448 0 0 0
184 1 1 0 676.8470584006865 631.9288491112694 644.6845948589978 0 0 0
185 1 1 0 658.606520673859 636.4017538588986 634.3829913681752 0 0 0
186 1 1 0 646.7044818793682 667.3655588386653 655.8385468427243 0 0 0
1078 1 1 0 661.7603190829942 642.5274186551969 634.1785312188475 0 0 0
188 1 1 0 640.9447966830704 674.2932121033075 658.5355075774978 0 0 0
189 1 1 0 653.4385122897744 664.9707597330087 655.198191070039 0 0 0
141 1 1 0 663.1833594796842 640.0448357975246 631.749316162419 0 0 0
681 1 1 0 655.7209078720714 638.3402648949293 632.0699710093102 0 0 0
532 1 1 0 659.8153871627765 632.6960823464926 680.8841481997619 0 0 0
1104 1 1 0 652.9384546410477 631.7480221917688 681.3461083890663 0 0 0
982 1 1 0 636.6776900864701 631.2225599724098 635.0991826628921 0 0 0
195 1 1 0 648.150876005349 669.2450710873372 653.5939506983685 0 0 0
196 1 1 0 658.7451327368117 637.3387380253772 635.7836794407491 0 0 0
913 1 1 0 638.1314280846074 669.1956321445508 652.1411383179446 0 0 0
65 1 1 0 642.9642165304076 680.1829502787966 652.6829656633334 0 0 0
865 1 1 0 672.6174932991494 652.7351187216535 681.1507538728465 0 0 0
200 1 1 0 649.5186718850451 666.2484776692853 657.4035193570176 0 0 0
201 1 1 0 651.4337232818255 631.8411663138969 632.8906777406222 0 0 0
202 1 1 0 663.7256910036383 656.5744226327984 682.1074715201369 0 0 0
203 1 1 0 651.3589834737645 632.0572524542443 635.4510482886216 0 0 0
204 1 1 0 643.5323001517149 670.0069541065928 656.4038777661144 0 0 0
3026 1 1 0 642.0353382179594 681.2790755413281 659.8443605668355 0 0 0
206 1 1 0 642.7047182329843 669.1298863041958 655.7378141905525 0 0 0
1023 1 1 0 668.9027769824095 633.959986470274 646.0467296989164 0 0 0
906 1 1 0 652.7193662449 639.1340934821774 636.2790734627653 0 0 0
209 1 1 0 647.7972356073093 667.3088688512842 658.5163191513511 0 0 0
2679 1 1 0 640.7340067700744 680.6899103797864 659.3044225588494 0 0 0
211 1 1 0 654.2875296385356 633.4687892067208 635.3732682611621 0 0 0
1010 1 1 0 675.7757703041858 632.0551024340288 650.3628694130052 0 0 0
213 1 1 0 643.9024909382927 664.0507893542498 654.411452598557 0 0 0
214 1 1 0 646.6356901673115 635.6032628619987 640.2930724770092 0 0 0
215 1 1 0 642.9108985878784 673.2548490076783 657.6945763381531 0 0 0
216 1 1 0 651.2811026439986 636.116440870903 638.001368632285 0 0 0
876 1 1 0 641.7806065779221 678.7514676649548 656.4336433702638 0 0 0
218 1 1 0 647.7298962032937 666.7493654082867 652.4788839903687 0 0 0
219 1 1 0 640.4736260778421 634.3222805086214 640.6086258226385 0 0 0
294 1 1 0 655.815796747076 633.5774892429106 679.9096993792341 0 0 0
908 1 1 0 650.9372673545035 637.708150859747 635.5357216691954 0 0 0
222 1 1 0 641.9342911250999 635.910293463447 639.583501871302 0 0 0
223 1 1 0 663.8870699011156 656.4115679779947 672.5708817629079 0 0 0
187 1 1 0 652.1404886023995 632.7222458517987 681.9282087558037 0 0 0
225 1 1 0 668.6933347565291 660.8525130812325 681.9985923405608 0 0 0
1130 1 1 0 644.1942763475683 679.2671400311192 658.4118591267812 0 0 0
227 1 1 0 650.4074357563774 638.0861929539934 632.5315227016464 0 0 0
228 1 1 0 670.2375579715765 651.8721641866974 680.9588700885946 0 0 0
229 1 1 0 646.8555126309218 669.7049319166463 653.9939409560689 0 0 0
230 1 1 0 660.6490276233884 659.2580816842651 681.1898729921251 0 0 0
231 1 1 0 644.1468814656482 677.8195452581199 656.2174431463247 0 0 0
232 1 1 0 648.5406136736144 668.4024578450594 659.0984036912038 0 0 0
170 1 1 0 677.910873575347 631.3320934529582 645.5103632696134 0 0 0
402 1 1 0 662.6977221924061 637.7885665197507 632.5223919960072 0 0 0
1097 1 1 0 646.4744663796904 632.670686879183 635.1850410143277 0 0 0
950 1 1 0 663.505872371796 642.8224805520883 632.4225492361644 0 0 0
237 1 1 0 644.2506471700067 669.6188476207033 658.2245014873129 0 0 0
238 1 1 0 641.9306003188382 671.979473632748 656.0056550970048 0 0 0
981 1 1 0 669.6245212359365 657.2367964198284 679.4202752735894 0 0 0
616 1 1 0 657.716335204441 639.3084362199346 631.7520454210706 0 0 0
241 1 1 0 654.1700869206178 638.2450537362491 638.0276133794983 0 0 0
860 1 1 0 633.2590709151237 658.8251584547945 658.1702507458868 0 0 0
243 1 1 0 644.7359672799162 673.9291635603893 654.5661551433601 0 0 0
244 1 1 0 670.7975923906403 636.3664832631152 644.312389493868 0 0 0
888 1 1 0 662.8061513803653 642.0114074204648 633.3316463805293 0 0 0
246 1 1 0 664.4544391140101 652.0347394342172 680.0560694280306 0 0 0
247 1 1 0 646.3926653501446 665.7999709834064 653.6155352212563 0 0 0
248 1 1 0 675.6265332542253 634.7729183887897 646.7293379308766 0 0 0
976 1 1 0 651.9312208978615 636.5743593083486 635.7154597476505 0 0 0
250 1 1 0 646.0532256649474 664.4386957002026 653.409702268187 0 0 0
251 1 1 0 658.9581896032938 659.3438358339292 675.2611974680648 0 0 0
887 1 1 0 678.5223373955541 631.5754461121969 650.7894509694918 0 0 0
253 1 1 0 664.8650326701145 658.4906293465426 679.4564510917015 0 0 0
254 1 1 0 643.7170215936992 632.0957764820482 641.3474593376374 0 0 0
1058 1 1 0 638.374559832317 664.5241287164538 655.1456679920635 0 0 0
256 1 1 0 672.1100631056505 636.0641599833488 644.7901400224654 0 0 0
257 1 1 0 644.7309401200987 672.6883696148114 653.9151148605182 0 0 0
3014 1 1 0 640.7462098090756 681.8550113523786 654.3225314606477 0 0 0
259 1 1 0 650.572361243961 633.0151270114982 639.4830952772772 0 0 0
1026 1 1 0 669.7665490654286 636.1856525616089 645.271029839927 0 0 0
68 1 1 0 638.3916326884571 631.1698095409646 638.4871163712692 0 0 0
262 1 1 0 658.9019590852021 660.8601286222296 678.6944064862016 0 0 0
263 1 1 0 652.5568194714322 667.0114522985855 658.1717231112552 0 0 0
1096 1 1 0 651.7194788536344 633.526239869449 637.9357512100734 0 0 0
351 1 1 0 655.3249605703345 633.4579957376196 632.4511556139362 0 0 0
266 1 1 0 653.8410071019298 667.4489238704803 655.054557823482 0 0 0
267 1 1 0 643.6674531989659 671.0223626174983 652.5383439910928 0 0 0
937 1 1 0 659.4487670243889 632.3922839054063 682.254133584544 0 0 0
269 1 1 0 648.9212958427678 667.19418956558 654.6060229911658 0 0 0
1043 1 1 0 653.7111995703017 635.0452150824706 639.690904056788 0 0 0
271 1 1 0 643.9577817703099 672.2778000075762 657.678385662821 0 0 0
272 1 1 0 667.359265720997 658.5398831222427 676.7234761497441 0 0 0
946 1 1 0 636.5946027799645 662.7528535652807 655.5839094171213 0 0 0
869 1 1 0 673.683188041195 653.3115843618568 681.922554894549 0 0 0
275 1 1 0 641.606059940997 675.2476222093429 651.7354779833502 0 0 0
276 1 1 0 644.5540967630682 634.2753926346483 636.2133936687338 0 0 0
277 1 1 0 638.2855794994709 663.8944629454891 653.8899705055566 0 0 0
991 1 1 0 650.6070925122287 636.639376610365 639.1454474190963 0 0 0
279 1 1 0 644.3686262600932 674.96706200664 653.7431559517081 0 0 0
985 1 1 0 654.2660994412267 637.1026292650921 635.0177217623644 0 0 0
281 1 1 0 651.2987806602234 665.9223834075682 655.0426769888373 0 0 0
1064 1 1 0 645.2383967476817 632.0437660949549 635.1704474938215 0 0 0
1042 1 1 0 655.7882297054886 631.3347450013296 678.9204921647904 0 0 0
284 1 1 0 666.2027515615757 653.2974615053746 681.191034358925 0 0 0
1071 1 1 0 638.4078675227696 667.9599005806126 651.3740649841367 0 0 0
286 1 1 0 657.699328923555 635.2568011145576 634.5589512072385 0 0 0
758 1 1 0 641.5434230600689 631.567170798889 635.4402024603548 0 0 0
288 1 1 0 664.789776168073 662.2728523709148 681.5171805115655 0 0 0
76 1 1 0 672.3251442011997 631.5464969075567 643.4031321284626 0 0 0
290 1 1 0 676.3280287225595 633.3542402161972 644.8519646724415 0 0 0
139 1 1 0 631.6419240424228 659.0932111525267 655.5068715531194 0 0 0
221 1 1 0 646.5558320958768 631.3376711491654 631.8806987848503 0 0 0
293 1 1 0 645.9650697534163 662.9402025967388 656.0234859248677 0 0 0
1009 1 1 0 659.7877920229083 639.5888138556339 634.1130126015173 0 0 0
295 1 1 0 645.7953877558245 667.9263948697273 657.1231364318807 0 0 0
296 1 1 0 640.8771073248739 635.0847871919725 639.4554951887047 0 0 0
297 1 1 0 675.6795760883616 632.8950995101466 648.0496354325599 0 0 0
971 1 1 0 670.2651672762019 631.4173532824219 641.6064647390209 0 0 0
299 1 1 0 644.6027137023412 670.0779690327798 652.9936857982387 0 0 0
300 1 1 0 663.9294524561554 652.7994677472218 678.9817996734204 0 0 0
301 1 1 0 644.2860585738366 667.4126147431682 653.4141020226782 0 0 0
302 1 1 0 637.4981470981774 668.9796727064265 653.3697588964922 0 0 0
303 1 1 0 663.0162533922003 658.5782896619223 681.3250556716309 0 0 0
304 1 1 0 639.2742813875973 674.0497797990192 656.3952014367243 0 0 0
993 1 1 0 647.5841829277506 632.7342653521931 636.3346264077272 0 0 0
306 1 1 0 663.4950934863602 662.8705987986723 681.7024305103947 0 0 0
307 1 1 0 673.3357127704436 633.4532269286491 642.4061733274807 0 0 0
308 1 1 0 648.7923583525859 663.5020382075485 658.1111273772894 0 0 0
309 1 1 0 651.2647795156082 663.9847402611751 657.195783754609 0 0 0
1159 1 1 0 659.5298522772706 635.9393432647609 631.2710076925259 0 0 0
311 1 1 0 641.4894672482321 633.8193330197788 641.4655120947001 0 0 0
912 1 1 0 660.0520192711012 636.9071828541578 634.8810311923208 0 0 0
313 1 1 0 645.6295761876106 669.0210355450606 655.9414962755876 0 0 0
314 1 1 0 642.3104149547304 665.9717339044809 654.8660059269806 0 0 0
315 1 1 0 642.5903466540734 665.2055013861881 652.0199111801667 0 0 0
988 1 1 0 672.2229151647969 631.6562656497758 650.6886291575172 0 0 0
317 1 1 0 640.8312497224304 634.2136941602008 638.3435436665887 0 0 0
318 1 1 0 648.1639826816807 669.7352858790741 658.5754838829996 0 0 0
884 1 1 0 649.9676977631226 633.3455438889039 640.6614527649939 0 0 0
1084 1 1 0 651.6232048887604 635.8908690960876 631.5688625314281 0 0 0
321 1 1 0 646.9342931738614 670.0188715634379 657.8195753597071 0 0 0
322 1 1 0 665.8514661964409 656.2248364396586 680.3331101089872 0 0 0
323 1 1 0 644.7442072673928 666.6117712362 652.3281581312456 0 0 0
1019 1 1 0 674.7094210083893 631.1961452375164 650.0638258777036 0 0 0
1116 1 1 0 634.6583836631658 663.4579082521808 656.8721949866496 0 0 0
326 1 1 0 644.6422205474464 664.3053543154745 653.2039279602374 0 0 0
955 1 1 0 638.177816665768 671.1623366526429 654.1538254796171 0 0 0
894 1 1 0 673.0714659936722 655.9572884120905 680.224237063296 0 0 0
329 1 1 0 664.7627303456314 656.1977603722789 674.7795191084042 0 0 0
330 1 1 0 670.4390626493162 633.7608922331394 642.5467553185229 0 0 0
2458 1 1 0 644.3402521899271 681.3928502845907 659.6317146702747 0 0 0
877 1 1 0 659.5848926798642 641.9015678429489 631.8104942542124 0 0 0
282 1 1 0 634.4957761816531 663.4338521213034 652.764995645851 0 0 0
334 1 1 0 667.3919657733514 652.4277705547245 681.3593261605781 0 0 0
335 1 1 0 666.4784971974548 654.6368248485832 681.3537078401125 0 0 0
336 1 1 0 661.4162326335706 654.588782586392 681.9099423124094 0 0 0
337 1 1 0 655.4886300448499 634.3430117615353 634.5810469326256 0 0 0
338 1 1 0 660.3800934787375 657.983983802616 680.6997267851046 0 0 0
339 1 1 0 674.183114527328 658.1952138894209 680.4787032209061 0 0 0
340 1 1 0 676.0195576475527 631.6678623969332 652.2890581195854 0 0 0
341 1 1 0 642.9770164671247 668.9059574972725 651.7821103972032 0 0 0
1069 1 1 0 638.85890105325 670.4268469684723 651.9364586592598 0 0 0
343 1 1 0 652.5643327566422 668.089344186385 654.8003469447666 0 0 0
868 1 1 0 654.0020192987444 634.8098819689809 633.906678716434 0 0 0
905 1 1 0 636.0834292995003 665.3259546854272 653.424647909687 0 0 0
346 1 1 0 638.8837560900156 673.1327072821554 655.383442403091 0 0 0
347 1 1 0 651.425804438085 665.3291428750043 656.9401180964004 0 0 0
1022 1 1 0 652.261400618883 634.1211122388369 636.1374084781172 0 0 0
1016 1 1 0 639.0147357804959 665.8285813422056 655.0744960934153 0 0 0
2203 1 1 0 644.2540313892627 631.5510287058652 631.4633062097874 0 0 1
1091 1 1 0 640.2312289967122 677.2223763167657 657.2457223783283 0 0 0
352 1 1 0 648.8842286326216 671.8828270156068 657.689110141865 0 0 0
942 1 1 0 670.3604637548674 632.2426818737607 649.1618526524155 0 0 0
354 1 1 0 650.3441812068611 669.2710675642154 654.7371772841224 0 0 0
1021 1 1 0 671.9217181283669 634.0478518048048 649.8097487898276 0 0 0
2591 1 1 0 642.7710823402182 681.8947504348737 655.666956609828 0 0 0
357 1 1 0 640.1821910048458 676.5021028819622 653.3463328291543 0 0 0
917 1 1 0 640.5653324966332 676.0275840748077 656.6127978698793 0 0 0
359 1 1 0 652.2305641247875 669.9717142298057 656.2908110623471 0 0 0
360 1 1 0 649.7403245591945 664.2579343280887 658.9486887089452 0 0 0
361 1 1 0 651.238514303365 664.1047007150163 659.7509723800886 0 0 0
362 1 1 0 665.6550450320985 662.2261094482556 680.4356745189342 0 0 0
4793 1 1 0 631.8196133276848 656.853421389601 659.8196651351091 1 0 0
364 1 1 0 642.5482163301256 664.6739321867382 654.3253253464998 0 0 0
928 1 1 0 640.5743661364339 667.9387781712335 655.7616058214156 0 0 0
965 1 1 0 672.1784138863507 632.4581207348837 644.6107809224255 0 0 0
972 1 1 0 660.3504502133579 644.1644581583449 633.1036265618807 0 0 0
368 1 1 0 646.2129208836933 666.6509872417013 652.378138412307 0 0 0
935 1 1 0 663.4003771119391 644.2386146034942 632.4330930424566 0 0 0
370 1 1 0 668.009051978053 655.4248584798943 679.0511574782283 0 0 0
371 1 1 0 662.9657415557997 659.70499359394 682.1498813340519 0 0 0
4162 1 1 0 631.9206964505993 656.807884025474 658.3958850294396 1 0 0
936 1 1 0 674.0385410283461 634.3325249099039 648.6965162283184 0 0 0
374 1 1 0 653.5557068434861 662.2330342807071 659.3011940910202 0 0 0
1089 1 1 0 639.8283781144693 666.1285284006034 652.6914270086896 0 0 0
571 1 1 0 658.9471571993458 634.7977716893863 632.3563585020195 0 0 0
862 1 1 0 640.3624567124191 677.5680978175338 658.5946819907527 0 0 0
378 1 1 0 651.8594427474542 663.5769082838723 658.3575075281382 0 0 0
379 1 1 0 640.8981758323829 670.0748068571966 656.8228452085339 0 0 0
380 1 1 0 667.521822153828 657.4937797994207 677.752777410937 0 0 0
381 1 1 0 652.5890351976174 665.8966689074845 657.30120831415 0 0 0
382 1 1 0 636.2298330925598 662.7635624349163 654.1561641339122 0 0 0
383 1 1 0 671.0327751151688 634.8948217098443 646.6687614155906 0 0 0
384 1 1 0 649.18813299703 637.854671674219 633.2930453791904 0 0 0
385 1 1 0 650.5222261293486 670.1301332981453 658.0469545714237 0 0 0
386 1 1 0 640.1986364503417 670.150391920316 651.4825637714216 0 0 0
954 1 1 0 643.213168610536 633.9945053814768 634.0127200204076 0 0 0
388 1 1 0 647.0945871779434 662.9505581812767 655.0220901729913 0 0 0
389 1 1 0 641.4251367979026 668.8905211316102 656.3317617494727 0 0 0
1034 1 1 0 640.7323978874541 673.0566161791373 652.645174697745 0 0 0
391 1 1 0 648.5562388184006 670.8810755306798 655.5698747039924 0 0 0
392 1 1 0 650.1959711437687 665.8573699069775 656.1794167920259 0 0 0
968 1 1 0 659.2160400521011 643.3361297200032 633.2973591590863 0 0 0
394 1 1 0 643.1040027131573 677.0020182190294 652.2378055589203 0 0 0
2678 1 1 0 642.133686544547 681.8640229872354 654.2884599507375 0 0 0
242 1 1 0 664.8150049026899 638.2933884774988 631.2706675462094 0 0 0
397 1 1 0 654.0950218442841 632.9500244291146 632.902279895006 0 0 0
398 1 1 0 643.7059202950401 668.7328649062404 653.2271612424053 0 0 0
399 1 1 0 643.3760844648081 636.0870902022801 637.633353645954 0 0 0
975 1 1 0 654.2712070450851 635.8538622196647 638.6941343381316 0 0 0
1025 1 1 0 656.4633988921587 637.7211001385965 636.6392240056587 0 0 0
1095 1 1 0 650.0447241963448 635.333301399475 636.0138359979215 0 0 0
1088 1 1 0 655.4815744775138 640.3289249844823 634.1383992450607 0 0 0
404 1 1 0 648.4786635562759 667.0969606337917 657.2539751081083 0 0 0
405 1 1 0 659.3631300810997 660.1477175944724 676.3287169714387 0 0 0
893 1 1 0 670.8747734952233 656.2924940963247 679.0474180739933 0 0 0
407 1 1 0 654.567043858932 667.5587395080016 656.3047909498583 0 0 0
3024 1 1 0 640.0644326455049 682.318735885949 655.5312863079319 0 0 0
597 1 1 0 656.5015144396641 632.5758600531606 679.234200189064 0 0 0
414 1 1 0 658.3536118022798 634.4741138839729 682.1775914833584 0 0 0
1169 1 1 0 642.0524893166748 679.8138036240342 657.2888439230248 0 0 0
412 1 1 0 665.6137727965812 659.8532939147202 679.2408313959928 0 0 0
1094 1 1 0 656.0485674737752 639.106522001707 634.4791097516502 0 0 0
1200 1 1 0 639.4830569324546 679.9456534924103 654.8527363492158 0 0 0
897 1 1 0 662.7350364572148 640.6296978875214 633.0510948154134 0 0 0
416 1 1 0 656.6152408925042 634.5933409804073 680.5001086196353 0 0 0
417 1 1 0 666.1087127885891 655.8074899241861 676.7877794772677 0 0 0
418 1 1 0 645.9420139600707 666.5341362184326 654.8760698992423 0 0 0
1049 1 1 0 636.6729673292311 666.7188707560539 652.6847705320764 0 0 0
420 1 1 0 651.4393222592917 667.195891344435 654.583419357189 0 0 0
421 1 1 0 649.0344816388775 665.6746364321 655.1165441470674 0 0 0
925 1 1 0 660.8538837978925 637.6071052487108 633.9692654816304 0 0 0
240 1 1 0 647.0011116893866 631.2738754689955 639.9009835639431 0 0 0
424 1 1 0 653.8221939151349 665.1257536204298 656.7426429249217 0 0 0
425 1 1 0 643.3147888087008 670.8835980196441 657.7268606988813 0 0 0
426 1 1 0 672.6772296582905 634.7002965475513 642.7730261216582 0 0 0