LAMMPS data file via write_data, version 2 Aug 2023, timestep = 50000, units = metal

14672 atoms
1 atom types

639.6946411264529 724.4853588735288 xlo xhi
640.1170839775644 724.7719160224405 ylo yhi
640.1587301839716 724.7302698160333 zlo zhi

Masses

1 12.0107

Atoms # full

1 1 1 0 642.7780233872264 643.0755065609975 650.8275853388143 0 0 0
2 1 1 0 643.6442244960815 643.0542704811702 652.2745366425542 0 0 0
3 1 1 0 643.6504813868149 642.7053298483492 649.4560360565949 0 0 0
4 1 1 0 645.1398241596131 643.0160342136747 651.9589128323939 0 0 0
5 1 1 0 644.9690998260322 642.089848666407 649.6387831329978 0 0 0
6 1 1 0 645.2616419302917 642.0060114028157 651.0035046231052 0 0 0
7 1 1 0 646.2080997835664 643.0663636060884 652.9285266707761 0 0 0
8 1 1 0 643.6298105946719 644.7356129989852 657.7041766479679 0 0 0
9 1 1 0 645.5465780606163 646.0977871926834 656.9948607623602 0 0 0
10 1 1 0 645.9095221638921 644.9973792038955 656.080197295256 0 0 0
11 1 1 0 645.1059245634226 647.6962342991982 655.2058081838186 0 0 0
12 1 1 0 644.5008903717406 646.570578366401 654.7388822413603 0 0 0
13 1 1 0 645.1306022148317 645.239960567482 654.8080442643861 0 0 0
14 1 1 0 644.3866365174914 648.9168662788067 654.8965225727774 0 0 0
15 1 1 0 645.6331813923101 647.4971533227459 656.5479875110193 0 0 0
16 1 1 0 644.3420887158151 645.9508956371667 657.7939588322306 0 0 0
17 1 1 0 644.1370984857548 648.3559135087036 658.142220891797 0 0 0
18 1 1 0 643.2327433668817 649.456650936725 658.3382403208152 0 0 0
19 1 1 0 641.536001934865 648.208497299438 657.007133303899 0 0 0
20 1 1 0 642.2974958270328 647.0726816832587 657.1677998656913 0 0 0
21 1 1 0 643.5205481952898 647.1110176314912 657.9100160128836 0 0 0
22 1 1 0 644.6519199595831 650.0810419973697 655.599307221051 0 0 0
23 1 1 0 645.3504985836643 648.573309157649 657.4030924284361 0 0 0
24 1 1 0 645.3403113669812 649.8700906674936 656.8136317618175 0 0 0
25 1 1 0 645.0607711710246 650.8801338363191 657.7026083265047 0 0 0
26 1 1 0 645.5527610576006 652.2617207485114 657.329745456537 0 0 0
27 1 1 0 641.9422672700613 649.4340979636914 657.7207156321057 0 0 0
28 1 1 0 641.2757302371016 650.7336478941487 657.4745288175471 0 0 0
29 1 1 0 641.9369907409352 652.0366597334464 657.9308802729836 0 0 0
30 1 1 0 642.038601029863 653.4452469416507 657.3254574998136 0 0 0
31 1 1 0 642.6305809874732 651.3266448116776 654.8813877621548 0 0 0
32 1 1 0 641.6004303029107 652.1800442807437 655.295210348845 0 0 0
33 1 1 0 643.8263957012467 653.0082146840251 659.0620702083412 0 0 0
34 1 1 0 643.8807502685169 650.7207878781489 658.4266777577654 0 0 0
35 1 1 0 643.1144792226262 651.8726427590844 658.7406092074666 0 0 0
36 1 1 0 643.2865718414575 654.3125733647137 659.1435906026975 0 0 0
37 1 1 0 644.0692013768169 655.2976031438856 659.7326873799177 0 0 0
38 1 1 0 642.5748788059833 654.6198878158356 657.9444662858062 0 0 0
39 1 1 0 654.4148617379641 643.5958069832235 641.5300587124373 0 0 0
40 1 1 0 651.7638126394237 660.3147538000247 641.9640265485438 0 0 0
41 1 1 0 641.0333142550843 654.5060362346916 655.3890897291709 0 0 0
42 1 1 0 641.7850340547578 653.4531596460322 655.9387680601008 0 0 0
43 1 1 0 641.4313428434936 655.7002654604718 654.8616631651674 0 0 0
44 1 1 0 643.1451693986852 655.8514373074056 657.3857679587084 0 0 0
45 1 1 0 644.7156559505978 652.4559384706929 655.8898752294169 0 0 0
46 1 1 0 643.9904180611269 651.3852903840826 655.4113038695324 0 0 0
47 1 1 0 645.5497505236705 653.7301067646899 655.977580371913 0 0 0
48 1 1 0 646.045696443852 653.9142510846444 659.2272635657653 0 0 0
49 1 1 0 645.1369537009058 652.9732934098396 658.6984664715413 0 0 0
50 1 1 0 645.5537340734988 655.0617880100859 659.7628447994666 0 0 0
51 1 1 0 646.7142338279643 653.5158363284938 657.1013095755802 0 0 0
52 1 1 0 647.1496910155665 654.0245159195878 658.3301869736418 0 0 0
53 1 1 0 640.6694288574066 642.5345637342643 652.1657233026748 0 0 0
54 1 1 0 658.1804945952891 658.199012609061 665.3199977715926 0 0 0
55 1 1 0 646.8215174324678 643.8871678183949 656.3953424773376 0 0 0
56 1 1 0 647.1962424632208 642.5917845999313 656.7744214474104 0 0 0
57 1 1 0 658.1377198696589 657.0985270624082 664.4636318719627 0 0 0
58 1 1 0 657.285447107275 643.9116588318376 640.8995199758759 0 0 0
59 1 1 0 641.5525453526067 643.6009130362756 651.89544893332 0 0 0
60 1 1 0 646.198189235438 642.3912220715829 654.1512183625445 0 0 0
61 1 1 0 658.6065593113781 660.6285088150435 665.8363290566191 0 0 0
62 1 1 0 657.8583377018733 656.2226906062045 660.8466866097955 0 0 0
63 1 1 0 657.1847285984846 656.7978828900813 661.9729816853818 0 0 0
64 1 1 0 658.1507040225972 657.6378521567656 662.9718733551973 0 0 0
65 1 1 0 657.5879347048278 661.5172495020462 666.2046524545399 0 0 0
66 1 1 0 660.2976849165808 654.0591007229477 659.7456941607164 0 0 0
67 1 1 0 661.2024858192209 653.3253397236209 658.935052382449 0 0 0
68 1 1 0 659.5976548208469 657.4580929797647 662.5008266800178 0 0 0
69 1 1 0 659.2513361591975 656.2455631131609 660.3787385522934 0 0 0
70 1 1 0 660.1004542187093 655.3963021005154 659.5659738401266 0 0 0
71 1 1 0 660.0238330639522 657.2515128722345 661.1668137581875 0 0 0
72 1 1 0 661.4548284297581 657.3327185031447 661.003838656295 0 0 0
73 1 1 0 661.2732901611848 655.9518896966653 659.0270783560869 0 0 0
74 1 1 0 661.9598129951167 655.3833857780575 657.9653942874351 0 0 0
75 1 1 0 662.2565621692593 656.3585639799571 660.1305597180901 0 0 0
76 1 1 0 661.9682660126633 653.9545302690007 657.958988644329 0 0 0
77 1 1 0 663.7110087357879 653.9638984780837 660.1549616906636 0 0 0
78 1 1 0 664.5228759066517 654.0567573125355 659.0250279743432 0 0 0
79 1 1 0 660.3969387707282 656.7219854531392 663.4315092204249 0 0 0
80 1 1 0 661.8245408815944 656.9596860477626 663.2926782396446 0 0 0
81 1 1 0 662.1893409973126 657.7468457517149 662.1516660141372 0 0 0
82 1 1 0 658.6167241216102 655.8088812451629 664.630402071125 0 0 0
83 1 1 0 659.8103321524794 655.4950071481026 663.969861928507 0 0 0
84 1 1 0 660.396177274936 654.3235032836734 663.5767896200996 0 0 0
85 1 1 0 662.5954265615138 655.8546186894158 663.5060243306301 0 0 0
86 1 1 0 661.8712162352368 654.589931313633 663.1958197663776 0 0 0
87 1 1 0 663.8852356059942 655.9283925950567 663.0639128889513 0 0 0
88 1 1 0 662.8365538792956 655.0556427387745 660.8994528361048 0 0 0
89 1 1 0 661.6519984628005 654.4312934909976 661.6650401236377 0 0 0
90 1 1 0 662.655308964874 644.8452078406478 659.4858040326735 0 0 0
2027 1 1 0 681.9157812040979 679.4491617752622 642.7514323793239 0 0 0
92 1 1 0 641.7698165087213 665.412898206257 642.3481229204925 0 0 0
93 1 1 0 641.4707092742104 664.0360105189745 642.1939816762954 0 0 0
94 1 1 0 642.0140503120094 661.3341178405004 642.1023904563692 0 0 0
95 1 1 0 641.4327841171 663.3354605834967 643.4089058232998 0 0 0
96 1 1 0 641.5623844778371 661.9498954338451 643.3076104830576 0 0 0
97 1 1 0 641.5262976880457 664.0542937746582 644.7024068707998 0 0 0
98 1 1 0 641.7375027336052 661.3093143876881 644.5413904661833 0 0 0
99 1 1 0 641.2535945253271 661.8980380205642 645.7352466133275 0 0 0
100 1 1 0 641.3720556178295 661.1862957322694 646.9408323561224 0 0 0
101 1 1 0 642.7727415140928 660.3483245790309 644.6602312505993 0 0 0
102 1 1 0 643.2497347444634 660.062493297982 645.9634023032385 0 0 0
103 1 1 0 642.4471970967055 660.3450004463078 647.0729306601794 0 0 0
104 1 1 0 642.9607192453357 660.0019813489622 648.361085908213 0 0 0
105 1 1 0 642.1050489967843 660.2493778306224 649.4586097311981 0 0 0
106 1 1 0 642.2541021479768 659.4836071251034 650.61551047695 0 0 0
107 1 1 0 645.2858401513929 660.1614858823887 641.3797317260512 0 0 0
108 1 1 0 643.1164920711897 660.4706835376869 642.2010235561795 0 0 0
109 1 1 0 643.6080862700204 660.2612729960388 643.528430280483 0 0 0
110 1 1 0 644.9730695049176 660.1397995927343 643.7746099311843 0 0 0
111 1 1 0 645.5224751691925 660.1709610081302 645.0765582443961 0 0 0
112 1 1 0 645.8165849077199 660.1232881933146 642.6549336000514 0 0 0
113 1 1 0 646.8956008805063 660.5024169558387 645.2903197694416 0 0 0
114 1 1 0 645.2180719120028 659.7891254970679 647.4805570534905 0 0 0
115 1 1 0 644.6597295483267 659.921388480171 646.1530322582049 0 0 0
116 1 1 0 647.3210457435844 660.4945928604544 646.6514168712389 0 0 0
117 1 1 0 644.292584053437 659.6287733627677 648.599807066541 0 0 0
118 1 1 0 646.4933745492447 660.2994771442973 647.7296032766629 0 0 0
119 1 1 0 643.6093552202138 659.176329338254 650.9435663462932 0 0 0
120 1 1 0 644.492382941708 658.973380362746 649.8622719562829 0 0 0
121 1 1 0 647.6132888146536 660.9052822795322 644.1555387046327 0 0 0
122 1 1 0 647.0540125614859 660.5294126343676 642.9357900452382 0 0 0
123 1 1 0 650.3282821360244 660.1691343751378 641.8504803748283 0 0 0
124 1 1 0 647.951097286232 660.774930410288 641.9144023372749 0 0 0
125 1 1 0 642.7870591260561 656.1165590853856 655.0846337484268 0 0 0
126 1 1 0 642.8531263880931 658.9731473289885 655.2237142827184 0 0 0
127 1 1 0 644.1144014038325 655.5400876996043 654.7237240160725 0 0 0
128 1 1 0 645.2028325851825 655.0576355135968 655.614887127092 0 0 0
129 1 1 0 646.6291631120266 656.7936879604214 656.8994928283371 0 0 0
130 1 1 0 648.5007522479325 657.029664660096 658.3860726736542 0 0 0
131 1 1 0 647.244652576573 656.4314794277826 658.1286893955466 0 0 0
132 1 1 0 643.1186412361494 658.178041279716 656.442029042844 0 0 0
133 1 1 0 643.8802313789922 659.7953709541717 654.6845163211455 0 0 0
134 1 1 0 642.7607292066451 656.7737560584081 656.3495240057515 0 0 0
135 1 1 0 645.488090923704 656.0170269846624 656.6434333201239 0 0 0
136 1 1 0 644.5073256031804 655.9971717990404 657.6135607093975 0 0 0
137 1 1 0 644.7771179899594 656.7041297151303 658.9881523378017 0 0 0
138 1 1 0 646.2760120766193 656.3305423241785 659.3859096642793 0 0 0
139 1 1 0 646.8747514369833 657.1414153541881 660.4351280871657 0 0 0
140 1 1 0 644.8072121684766 658.2167235372675 658.6226339545464 0 0 0
141 1 1 0 644.2690558039487 658.5085800457009 657.2689120817788 0 0 0
142 1 1 0 646.0614277865702 658.8611674099128 658.9743894378831 0 0 0
143 1 1 0 645.0250843697945 659.8795250914648 655.4899929651519 0 0 0
144 1 1 0 645.3781956728135 658.872512634004 656.3784153461486 0 0 0
145 1 1 0 646.589627305029 658.2481632796192 656.7222728103088 0 0 0
146 1 1 0 656.287296546778 664.7615652426085 643.2660877159154 0 0 0
147 1 1 0 656.8033593570952 663.4674418544311 643.1152260023183 0 0 0
148 1 1 0 655.9136515623384 662.4126196459777 642.7825097979965 0 0 0
149 1 1 0 648.6880343073844 655.9433134278131 659.4188871979214 0 0 0
150 1 1 0 648.3511513905273 654.6496558367367 658.9146345044617 0 0 0
151 1 1 0 648.9902363830072 657.7830168379029 661.223030083629 0 0 0
152 1 1 0 648.2158989040023 656.7806434151437 660.6230360218492 0 0 0
153 1 1 0 648.3311477940072 658.9397525414861 661.9739248583653 0 0 0
154 1 1 0 646.666657052893 658.520551863566 660.2417579948115 0 0 0
155 1 1 0 647.8089671547446 659.3030167455818 660.573423291799 0 0 0
156 1 1 0 648.8979766876138 659.0963657375125 659.6287170201596 0 0 0
157 1 1 0 648.4101161958567 658.4468069631496 658.409603649974 0 0 0
158 1 1 0 647.0764786800337 658.845998633598 657.9584795074131 0 0 0
159 1 1 0 650.0939479620321 658.4686129629952 660.385154805538 0 0 0
160 1 1 0 657.1709405206914 665.8292007679304 643.6007793247371 0 0 0
161 1 1 0 657.9033431093652 666.087103490522 644.7193063306527 0 0 0
162 1 1 0 656.635193576741 661.2669998924036 642.386985578689 0 0 0
163 1 1 0 643.7553718819454 659.1343734389128 652.3574830596942 0 0 0
164 1 1 0 659.2402377503845 665.6755585798544 644.7262505239307 0 0 0
165 1 1 0 642.3082207265439 658.9166952563437 652.8513555040124 0 0 0
166 1 1 0 657.9722863209473 661.6972169995875 642.3317362736353 0 0 0
167 1 1 0 642.0094098900644 658.4897055876338 654.1614940478487 0 0 0
168 1 1 0 654.0182331081642 657.2204915236132 663.8241956270012 0 0 0
169 1 1 0 658.3091128986971 659.5589007315683 664.9738369527485 0 0 0
170 1 1 0 654.0833281717137 660.4622680343177 664.2736651315638 0 0 0
171 1 1 0 652.8353827736246 660.0388856107943 663.8056985055066 0 0 0
172 1 1 0 653.4308007344092 658.0628455672238 664.9635696325645 0 0 0
173 1 1 0 652.3469684417594 658.857580438894 664.451808532401 0 0 0
174 1 1 0 654.1105300810896 658.8278491536361 665.9968667835691 0 0 0
175 1 1 0 650.9756023172783 658.6632976074693 664.1975102592751 0 0 0
176 1 1 0 655.1335823084016 659.9137922951528 662.2082905774485 0 0 0
177 1 1 0 653.8340052206274 659.4898210259688 661.7319046730313 0 0 0
178 1 1 0 653.6738063677714 658.0736269686057 661.5107120227253 0 0 0
179 1 1 0 654.489780284145 657.2894261420333 662.3732864026786 0 0 0
180 1 1 0 652.6490119007474 660.092859261559 662.3883274520113 0 0 0
181 1 1 0 651.3909511473661 659.5896056594992 661.9549985312644 0 0 0
182 1 1 0 651.3362754864006 658.6021719067587 660.9580578037331 0 0 0
183 1 1 0 650.4127659518502 659.3887136430492 663.0781609195691 0 0 0
184 1 1 0 649.017988759491 659.5642922875662 663.023413653908 0 0 0
185 1 1 0 652.4660002829088 657.7713455555776 660.8499795300712 0 0 0
186 1 1 0 654.6556619369829 659.8151101740713 668.290619924758 0 0 0
187 1 1 0 654.3772837494364 660.158332569174 665.5817782917177 0 0 0
188 1 1 0 656.4214373870188 661.3544623432367 665.4324824200593 0 0 0
189 1 1 0 655.4211827033339 660.8366431608222 667.593508322427 0 0 0
190 1 1 0 655.3163146519809 660.9703549177892 666.1697405579251 0 0 0
191 1 1 0 656.4707826793328 660.7792788565066 664.1093396135125 0 0 0
192 1 1 0 654.2820576497878 658.7403520763035 667.3828890474457 0 0 0
193 1 1 0 656.1866717108043 658.9146682795604 662.1568104136561 0 0 0
194 1 1 0 657.5425728054892 659.9210306566724 663.8471439287679 0 0 0
195 1 1 0 657.4268356417156 659.0769608833044 662.7737039760509 0 0 0
196 1 1 0 655.2108712268288 660.624257407224 663.430915856604 0 0 0
197 1 1 0 655.8894806626095 657.4791572601479 662.1036775856006 0 0 0
198 1 1 0 664.4235345198617 648.6097906069691 661.2385137243218 0 0 0
199 1 1 0 663.890115105411 647.5859605159582 660.3924417710739 0 0 0
200 1 1 0 661.9377208732764 645.9616819695699 660.1906491432384 0 0 0
201 1 1 0 662.532793876267 647.1524007039338 660.7584564902617 0 0 0
202 1 1 0 660.0640442971198 645.1961093930037 658.5694725842185 0 0 0
203 1 1 0 660.5005607884988 646.0507025490667 659.8170177900661 0 0 0
204 1 1 0 661.6809518938667 648.2566069981659 661.2138734512437 0 0 0
205 1 1 0 659.7353042235043 643.9045881834396 658.2116293411543 0 0 0
206 1 1 0 661.9342877307039 645.8758476924044 657.3571688317734 0 0 0
207 1 1 0 662.9344407331038 646.8605524481037 657.5503516326473 0 0 0
208 1 1 0 660.1082451998101 647.4414747188259 659.5659954537493 0 0 0
209 1 1 0 660.571441191867 648.4819006163191 660.4028337210746 0 0 0
210 1 1 0 660.5536140491556 646.2561281829488 657.5651988317624 0 0 0
211 1 1 0 662.6772048936597 648.2826735888655 657.5909051392114 0 0 0
212 1 1 0 660.344135940685 647.6072655423079 658.1376621899437 0 0 0
213 1 1 0 661.3190130820199 648.6597276983267 657.9058468153536 0 0 0
214 1 1 0 660.385438198203 649.8076455169403 659.8719000336529 0 0 0
215 1 1 0 661.0504267576974 649.92724974886 658.6199177605095 0 0 0
216 1 1 0 662.0596688095693 650.8788449872163 658.625862594639 0 0 0
217 1 1 0 663.7043236787287 649.233961063766 657.9206777883293 0 0 0
218 1 1 0 663.3755309478777 650.6405222037445 658.2048532933837 0 0 0
219 1 1 0 662.0482778793789 649.6590742110399 662.006046376903 0 0 0
220 1 1 0 663.7326134697424 649.701128133901 661.7427205995081 0 0 0
221 1 1 0 660.6510517787154 650.6025992552288 662.1701282729064 0 0 0
222 1 1 0 660.8275708010336 651.8619497343261 663.020712786908 0 0 0
223 1 1 0 660.1384195941873 650.8334529691987 660.8384944852291 0 0 0
224 1 1 0 661.785580769056 652.046716194616 659.5334417643411 0 0 0
225 1 1 0 660.3658420421951 653.5727609459451 661.2185350712011 0 0 0
226 1 1 0 660.4428232487869 652.1540958042376 660.3730899751783 0 0 0
227 1 1 0 662.2772666528746 652.169974794483 663.1459992588398 0 0 0
228 1 1 0 660.1247913410558 653.1001518071575 662.7640249219659 0 0 0
229 1 1 0 662.68975344374 651.9694246291667 660.7637963770202 0 0 0
230 1 1 0 662.5184685673953 651.26165633776 661.9869522144028 0 0 0
231 1 1 0 662.8072327626379 653.389298080369 663.3913847487387 0 0 0
232 1 1 0 662.1645701880296 644.604368457622 658.0656851117121 0 0 0
233 1 1 0 656.3602936560411 661.6351608008921 668.2679062681392 0 0 0
234 1 1 0 657.5083346068577 662.0105166749701 667.5609415271399 0 0 0
235 1 1 0 658.2799811731428 662.9692984414024 668.1611529323978 0 0 0
236 1 1 0 658.1497310731696 663.2117936215977 669.5576468449377 0 0 0
237 1 1 0 658.8123697190559 664.4487013752613 669.8438593956729 0 0 0
238 1 1 0 662.3576418465246 655.5326784045595 641.3462870730556 0 0 0
239 1 1 0 661.8736940822795 654.2163211110305 641.3323147848836 0 0 0
240 1 1 0 663.5867179430608 655.8147494805619 641.9866901964747 0 0 0
241 1 1 0 662.8147991023145 653.1351051997929 641.3207002957688 0 0 0
242 1 1 0 643.3067682151117 644.2345348801506 653.1815511659782 0 0 0
243 1 1 0 645.5633026958211 641.7630316267084 655.2209577017233 0 0 0
244 1 1 0 643.7542754139595 660.2438992011159 653.3366583545896 0 0 0
245 1 1 0 642.625481301968 644.6464528024602 656.8145596987235 0 0 0
246 1 1 0 648.8077550113309 661.7388955196717 643.6949487144472 0 0 0
247 1 1 0 650.4786666462086 663.8954080428166 641.8094515890423 0 0 0
248 1 1 0 661.9167353598757 643.3307035058558 657.4556248075799 0 0 0
249 1 1 0 660.557310268742 642.9514638991341 657.5063855225297 0 0 0
250 1 1 0 664.4482423463716 654.666302807212 642.2535006279265 0 0 0
251 1 1 0 664.2174008251641 653.513420113862 641.4829882670232 0 0 0
252 1 1 0 642.297921530385 645.9661428430302 656.1335946888676 0 0 0
253 1 1 0 644.3482721271301 642.2316941873441 655.6343830775872 0 0 0
254 1 1 0 649.3012848136669 660.9126753555893 642.4682346891587 0 0 0
255 1 1 0 648.070505886181 663.0414064089958 642.3825577418145 0 0 0
256 1 1 0 641.155882123048 663.3139260404383 645.8613762502101 0 0 0
257 1 1 0 643.0269168979936 648.847498457736 654.292663848292 0 0 0
258 1 1 0 644.1445582582547 644.3199112973535 654.3651717532732 0 0 0
259 1 1 0 643.4818375052865 641.2681256936313 656.0053543335368 0 0 0
260 1 1 0 640.7647610397586 661.6451870984142 648.0667755200905 0 0 0
261 1 1 0 641.2379783101682 661.3311296651475 649.3479523160099 0 0 0
262 1 1 0 646.8594900910267 663.5648343696187 642.08308387952 0 0 0
263 1 1 0 664.1109325463909 657.1991377951192 642.0050090302403 0 0 0
264 1 1 0 642.206162317541 649.9870317545087 654.6204452901179 0 0 0
265 1 1 0 643.124734635158 646.5165172489785 654.8575672965463 0 0 0
266 1 1 0 642.4257982159444 647.5535073001469 654.233386538287 0 0 0
267 1 1 0 643.7419695867492 643.3695422725947 655.3342280164704 0 0 0
268 1 1 0 642.5810084192747 665.7033187386901 643.4611452309045 0 0 0
269 1 1 0 642.8997514067088 661.3016747308743 652.9699934023448 0 0 0
270 1 1 0 654.5121675933709 642.5596779164367 642.4758642970884 0 0 0
271 1 1 0 657.6404664965598 642.5533895524368 641.0090087751056 0 0 0
272 1 1 0 656.5228316691422 641.8066375496924 641.392123025241 0 0 0
273 1 1 0 665.7793299178055 654.8779289990393 642.6649931794012 0 0 0
274 1 1 0 640.7269551808107 657.9329810200593 654.1812383778388 0 0 0
275 1 1 0 641.8816541776503 644.4585131235826 652.9670136136151 0 0 0
276 1 1 0 642.2166266687883 641.7872819163947 655.8308750534884 0 0 0
277 1 1 0 641.8714947561131 665.4149918725934 644.6726291412637 0 0 0
278 1 1 0 641.6522789957618 661.2386119941814 652.287391116164 0 0 0
279 1 1 0 641.3154573086902 659.7960141086766 652.0159177647952 0 0 0
280 1 1 0 640.9886821513118 666.4792457654082 641.9460601020619 0 0 0
281 1 1 0 650.3677687985713 663.8036552209569 643.2508898851374 0 0 0
282 1 1 0 655.6106032011774 641.5667116011463 642.4688140489358 0 0 0
283 1 1 0 653.3046980513482 641.9965600963893 643.0022475329596 0 0 0
284 1 1 0 665.8703323788155 666.3582934141183 644.6687913203084 0 0 0
285 1 1 0 665.090267891317 657.5929196542098 642.9717331449332 0 0 0
286 1 1 0 666.2509557119502 655.6242931395545 643.7997958069284 0 0 0
287 1 1 0 640.4339468478718 656.7411929338452 654.8365397480508 0 0 0
288 1 1 0 640.7371601997248 663.880759725523 647.0822216284404 0 0 0
5084 1 1 0 641.2932956359863 651.4482812159089 681.70153569745 0 0 0
290 1 1 0 640.8068422014297 662.3013494270931 650.2713791002947 0 0 0
291 1 1 0 640.6924111338132 662.0657787358989 651.6404981705587 0 0 0
292 1 1 0 652.5164112032918 665.3113588889807 642.1970576480521 0 0 0
293 1 1 0 659.7503466749389 664.8930448517023 643.658108620721 0 0 0
294 1 1 0 658.9405904797309 660.9377306797347 641.8314830839029 0 0 0
295 1 1 0 665.3765784968532 665.0860289473798 644.562511174337 0 0 0
296 1 1 0 667.2615250170215 666.4239849656952 644.9551936323179 0 0 0
297 1 1 0 666.1740582428572 663.92718288235 644.4772613837587 0 0 0
298 1 1 0 665.7438170253524 656.9133935542176 643.9900309087361 0 0 0
299 1 1 0 642.3034647982792 643.4353585362041 655.9370945389763 0 0 0
300 1 1 0 659.3112461594877 663.7223681723913 642.6997616221759 0 0 0
301 1 1 0 663.9952790666215 665.0218073489003 644.5946123839659 0 0 0
302 1 1 0 668.0906864737628 665.5467163714425 644.3315657188897 0 0 0
303 1 1 0 667.6826522596557 664.1650216567343 644.0245546543841 0 0 0
304 1 1 0 665.5475372343441 662.7967067131594 644.1259587463558 0 0 0
305 1 1 0 667.4187044816981 655.1632153797713 646.4996896741734 0 0 0
306 1 1 0 640.2745231404741 666.0681558041483 646.2567592065807 0 0 0
307 1 1 0 652.56458833112 664.9217963867654 643.6387695131286 0 0 0
308 1 1 0 662.9331139084883 642.4313351986586 657.1521506510118 0 0 0
309 1 1 0 663.300378850093 666.2343373682386 644.3466599592313 0 0 0
310 1 1 0 661.3401644267859 665.0166408428 643.5480980119356 0 0 0
311 1 1 0 660.2699373744814 662.4839206612982 642.980255797976 0 0 0
312 1 1 0 666.8309950094476 654.570219751494 641.7258474788929 0 0 0
313 1 1 0 665.3488414111184 662.3445478462536 642.5053857705952 0 0 0
314 1 1 0 661.9092966512432 666.131703747309 644.3391632186748 0 0 0
315 1 1 0 666.6123403791561 656.2370009073477 646.8763053434097 0 0 0
316 1 1 0 648.970712961627 663.424459389173 643.6911641661683 0 0 0
317 1 1 0 651.2799688961887 664.5655058459552 644.1330006170517 0 0 0
318 1 1 0 661.9815874280328 663.7811969246674 644.1667799052103 0 0 0
453 1 1 0 652.3807793712447 640.3049483538879 644.5893143011566 0 0 0
320 1 1 0 663.3421949772561 663.7994127258223 644.458277556078 0 0 0
321 1 1 0 664.0996586821789 662.6617405417459 644.0965903389886 0 0 0
322 1 1 0 668.0612256346803 655.2697969997329 641.8180339212189 0 0 0
323 1 1 0 663.150301680659 656.0524516620519 657.4816210356468 0 0 0
324 1 1 0 658.0976168842712 641.6987253753582 655.6209652657463 0 0 0
325 1 1 0 661.5512324483407 662.7011339492547 643.3824645159503 0 0 0
326 1 1 0 663.5595773196226 661.766159585996 643.1263387439982 0 0 0
327 1 1 0 664.5521145748322 660.9013197840912 642.3946690723302 0 0 0
328 1 1 0 666.7477950701258 662.6692122150195 642.1757304996024 0 0 0
329 1 1 0 664.9482387415846 659.75188708572 641.7989492880749 0 0 0
330 1 1 0 668.7703115301912 655.7320254183717 640.6978315324509 0 0 0
331 1 1 0 666.4614581163348 657.7663236951139 645.0289303764132 0 0 0
332 1 1 0 653.440339869952 665.6717677405261 644.3735175194805 0 0 0
333 1 1 0 662.5172131068437 662.4352219531751 642.2057411644688 0 0 0
334 1 1 0 667.2637238925242 663.8602977909109 642.5471114956661 0 0 0
335 1 1 0 664.1859929924997 654.9610576862472 661.8925571402249 0 0 0
336 1 1 0 666.8840484063279 657.4476384694954 646.3827586306631 0 0 0
337 1 1 0 640.6029990391511 667.4842671627774 642.8653979650234 0 0 0
338 1 1 0 659.111348657145 663.9494173626282 667.5962456930897 0 0 0
339 1 1 0 648.7923587458683 665.1132795273677 643.4789685609119 0 0 0
340 1 1 0 667.7875991462136 664.6777709644017 641.4961657717387 0 0 0
341 1 1 0 665.6671834404162 658.800973077348 642.6217489143777 0 0 0
342 1 1 0 667.3458099005471 662.0923784908432 641.0659159158344 0 0 0
343 1 1 0 664.0262233742168 646.3856671914249 658.3002369874253 0 0 0
344 1 1 0 663.0675673518351 653.4005425415777 657.2462682946125 0 0 0
345 1 1 0 664.1973584433177 652.9992925405934 658.0828185670052 0 0 0
346 1 1 0 663.4319449410991 657.1083098022284 659.6266737467772 0 0 0
347 1 1 0 663.8418230671849 655.5113206021842 656.345482229793 0 0 0
348 1 1 0 663.4493181337454 654.1081238601074 656.0706450844863 0 0 0
2446 1 1 0 676.9592302489381 682.3973445109007 643.5611193322007 0 0 0
350 1 1 0 640.5202477184986 665.2428694506402 647.3951912365386 0 0 0
351 1 1 0 641.0536667529811 666.4160311850677 645.1270406713412 0 0 0
352 1 1 0 652.2899310757574 641.7201400893687 642.0787805409639 0 0 0
353 1 1 0 663.6002798630398 657.92396997742 661.8731219576597 0 0 0
354 1 1 0 663.960551174812 656.6769793292036 658.449206023489 0 0 0
355 1 1 0 667.1326253778518 658.8724292462251 644.4262390732822 0 0 0
356 1 1 0 666.9150665683334 659.1733924439546 643.0697364194889 0 0 0
357 1 1 0 665.5768390508463 655.0291454846039 659.518163289413 0 0 0
358 1 1 0 664.4031253508173 657.1905286421119 662.7537232244199 0 0 0
359 1 1 0 664.1229824714982 657.9086532469353 660.5228329531808 0 0 0
9688 1 1 0 650.7538663760206 666.0995956066728 640.5471660792618 0 0 1
361 1 1 0 664.0697551516732 653.7861798925701 663.0169757344958 0 0 0
362 1 1 0 667.654545975073 655.4173019776058 644.1070288036374 0 0 0
363 1 1 0 663.9861143483877 645.0298304874965 658.8495165872756 0 0 0
364 1 1 0 665.67794422669 654.8219786626407 661.1676666490217 0 0 0
365 1 1 0 653.5032731474638 640.9540534646578 643.9439260197306 0 0 0
366 1 1 0 667.7230198314461 660.1285107195688 642.3836779684711 0 0 0
367 1 1 0 663.8120244795308 652.7364422677261 660.7271902418521 0 0 0
368 1 1 0 664.4683023588508 651.5297713069681 658.2992663765248 0 0 0
369 1 1 0 668.5179375785209 655.7719435204277 643.0247709187585 0 0 0
370 1 1 0 665.0488729637808 651.6262770904274 663.3191497915574 0 0 0
371 1 1 0 664.881110181172 648.7811120502986 658.4965041603019 0 0 0
372 1 1 0 665.7662676239094 657.0931073563291 662.5311607982932 0 0 0
373 1 1 0 659.5185158913005 664.0138551384638 666.3370021181033 0 0 0
374 1 1 0 660.188949943227 666.0744229426673 668.6854990250786 0 0 0
375 1 1 0 664.7476040676125 647.3409493558257 659.1785495353666 0 0 0
376 1 1 0 667.8384560092951 659.772559384978 645.1810043348843 0 0 0
377 1 1 0 657.0151606493667 640.9985288642355 654.9733205142915 0 0 0
378 1 1 0 664.2844837371772 642.1783988268709 657.5023876757127 0 0 0
379 1 1 0 660.2394637969883 641.6526243507792 657.0037275169027 0 0 0
380 1 1 0 664.9317717357366 643.9773862317239 659.0616667815783 0 0 0
381 1 1 0 665.0906758376481 642.6473130166556 658.5260077463367 0 0 0
382 1 1 0 659.0068674644265 641.1638582699845 656.5568903825138 0 0 0
383 1 1 0 659.3579762357666 664.9505401009637 668.6102858001879 0 0 0
384 1 1 0 668.2454796141828 655.3422123353922 645.375006009332 0 0 0
385 1 1 0 668.0039123762485 658.0937607858356 646.8722924726571 0 0 0
5083 1 1 0 641.6580542973455 650.0500286335534 681.7646989325206 0 0 0
387 1 1 0 665.2057187432442 652.9739129252462 663.0252591671523 0 0 0
388 1 1 0 641.1507103453562 644.7916473277934 654.1638482933214 0 0 0
389 1 1 0 664.5132425857715 650.8750788246011 662.1446822249535 0 0 0
390 1 1 0 666.1807394017652 655.7609593384484 662.4323229927948 0 0 0
391 1 1 0 665.4889594062538 656.2626661753447 658.5785049698341 0 0 0
392 1 1 0 665.5380525149479 658.0021177469231 660.329364305607 0 0 0
393 1 1 0 665.922622611527 649.626365020208 658.9345220906202 0 0 0
394 1 1 0 665.6339840410124 651.0160774729338 659.0295616257109 0 0 0
395 1 1 0 665.1371739680012 652.1818857047244 661.2175921750949 0 0 0
396 1 1 0 654.3441178487642 666.624950821449 643.767507299525 0 0 0
397 1 1 0 660.1275072783527 667.2113190833323 669.487207655133 0 0 0
398 1 1 0 665.1160198103672 656.0281606621475 656.0789237627353 0 0 0
399 1 1 0 666.1211278788683 653.3802307403752 661.7783843272739 0 0 0
400 1 1 0 641.0583997114493 647.4338685747745 654.7449030703242 0 0 0
401 1 1 0 661.316361053578 666.9028956736404 645.3351877614973 0 0 0
402 1 1 0 650.6645845724518 665.6853263787701 644.8489500498882 0 0 0
403 1 1 0 666.111243245309 646.7745512910245 659.4997100008733 0 0 0
404 1 1 0 666.3693911152486 657.8889208290848 661.5089414113339 0 0 0
405 1 1 0 666.1642645457806 645.6316210341524 660.2844442697342 0 0 0
406 1 1 0 666.218244354144 657.5121638888595 659.1757840744685 0 0 0
407 1 1 0 665.9764511175706 644.2852772524768 659.9965355721258 0 0 0
408 1 1 0 666.0509060629298 656.0930155682179 657.0931240290647 0 0 0
409 1 1 0 668.2988758948871 659.404894032595 646.434164122491 0 0 0
410 1 1 0 665.7524945151887 648.660081939945 661.4941904149409 0 0 0
411 1 1 0 666.1458893418962 651.6061770563837 660.2447525757077 0 0 0
412 1 1 0 659.9619428380678 666.6361183896458 645.5654785923283 0 0 0
413 1 1 0 666.209065565781 641.8693011802696 659.0189081134457 0 0 0
414 1 1 0 662.5028783296053 641.1893406536075 656.5444231183392 0 0 0
415 1 1 0 649.6851964824197 666.1336371207246 643.8684679258685 0 0 0
416 1 1 0 652.9454009963915 666.2142629188465 645.5871695309594 0 0 0
417 1 1 0 653.7229459083435 667.4372580457826 642.7478020628067 0 0 0
418 1 1 0 660.234345541667 661.47939235109 641.9381822721388 0 0 0
419 1 1 0 651.6030585773544 666.6990893578185 645.3365708892295 0 0 0
420 1 1 0 640.4189084703266 667.3468044084976 644.2410336445337 0 0 0
421 1 1 0 666.8766304199768 649.0810526386838 659.920850030696 0 0 0
422 1 1 0 667.061815876937 649.7428517374092 661.3795531603364 0 0 0
423 1 1 0 667.513761843616 655.5611721367253 662.81763060592 0 0 0
424 1 1 0 666.8868425356446 647.7354996458349 660.1621459893418 0 0 0
425 1 1 0 667.2443763133955 651.1388407610837 661.0225082821078 0 0 0
426 1 1 0 666.4188223872178 645.9266894454106 661.6235588072036 0 0 0
427 1 1 0 666.6993138974029 647.4203084554659 661.7163455268428 0 0 0
428 1 1 0 667.4166262958694 656.2032035898734 656.9078933823208 0 0 0