LAMMPS data file via write_data, version 2 Aug 2023, timestep = 50000, units = metal

35556 atoms
1 atom types

635.8965304537251 736.7914685462799 xlo xhi
636.3331014750213 737.0638975249867 ylo yhi
636.3691965132281 737.0278024867799 zlo zhi

Masses

1 12.0107

Atoms # full

1 1 1 0 653.853117452357 641.5035940914172 639.7527656228251 0 0 0
2 1 1 0 651.4879418668709 642.7756256998452 641.8208266888812 0 0 0
3 1 1 0 652.637072158539 640.990484164422 640.2356762760498 0 0 0
4 1 1 0 652.7333367767205 639.5297460531373 640.5452133829307 0 0 0
5 1 1 0 651.5872264262227 641.6431612828729 640.9482019012682 0 0 0
6 1 1 0 650.3594376733095 640.8826549267243 640.8400758617709 0 0 0
7 1 1 0 649.1192521325999 641.5398283172393 640.8940616828027 0 0 0
8 1 1 0 651.3993013394536 638.7811528343053 640.4392968302861 0 0 0
9 1 1 0 651.447624337761 637.614665478642 639.7157080947553 0 0 0
10 1 1 0 650.2528138578077 639.5669297562863 640.4095135288312 0 0 0
11 1 1 0 649.1028693138371 639.0157578225163 639.9080127281372 0 0 0
12 1 1 0 648.0458048570965 641.1047091586404 640.1044997400697 0 0 0
13 1 1 0 648.0443209781631 639.8446693757313 639.6008207582142 0 0 0
14 1 1 0 646.9155677702798 641.8667786567439 640.017493079034 0 0 0
15 1 1 0 645.9216342096495 641.4782975693465 639.1563551827082 0 0 0
16 1 1 0 644.8586446980269 642.3176976138284 638.9084813886495 0 0 0
17 1 1 0 650.2838257576398 636.9109208905486 639.3722881881091 0 0 0
18 1 1 0 639.2378599477279 638.0484170584948 658.6130260263238 0 0 0
19 1 1 0 649.1594036845224 637.7558684611614 639.3045807355946 0 0 0
20 1 1 0 651.940741760205 676.8035379965162 640.1596024631631 0 0 0
21 1 1 0 647.1081388915541 639.4436280296229 638.6347458152543 0 0 0
22 1 1 0 639.0741921663639 671.6760527124954 642.4642285859219 0 0 0
23 1 1 0 646.0361458230599 640.3129140261545 638.4432254830072 0 0 0
24 1 1 0 645.1578658555669 640.0128047290926 637.4120255454736 0 0 0
25 1 1 0 643.9752544018706 642.060571027065 637.8740221523058 0 0 0
8915 1 1 0 637.5070348850388 636.3443723362104 663.438543774604 0 1 0
9085 1 1 0 669.0897306254059 686.4179452610289 640.8140231007612 0 0 0
28 1 1 0 685.0414679382511 662.4412046998114 647.1497997450998 0 0 0
29 1 1 0 660.9903376724803 640.1911758120151 684.8692482201656 0 0 0
30 1 1 0 639.7572401010403 684.8417438996665 666.1707620221882 0 0 0
31 1 1 0 644.1929273642878 677.0766651388543 686.0622671021733 0 0 0
32 1 1 0 646.5461783504054 648.4837890077647 638.9765377044351 0 0 0
33 1 1 0 682.1063839957956 682.45451292437 673.720501458091 0 0 0
34 1 1 0 647.1090698639237 638.153370619087 638.1321703312955 0 0 0
35 1 1 0 645.6215151455417 671.9384798496542 637.9729542553039 0 0 0
36 1 1 0 674.8041821508298 685.3663123883404 647.0021703005988 0 0 0
37 1 1 0 684.8982800574227 640.0089330942743 666.423988246926 0 0 0
38 1 1 0 657.0776427566736 639.1309868256544 655.0217062424687 0 0 0
39 1 1 0 673.4908340174208 682.8282770633868 675.9926880154464 0 0 0
40 1 1 0 683.0275019743431 657.4290301011001 640.1479964064347 0 0 0
41 1 1 0 659.5962981341531 640.0259987406308 672.1973742696603 0 0 0
42 1 1 0 648.0468456697928 637.2692632279997 638.5624501294521 0 0 0
43 1 1 0 663.6198608792337 684.4811177458917 638.9849361849039 0 0 0
44 1 1 0 649.3243878777108 680.8129409691052 637.30504583079 0 0 0
1599 1 1 0 636.1865555140747 649.9401552248735 649.6270331697349 0 0 0
46 1 1 0 660.2547682451357 637.7210929642356 672.6583637137592 0 0 0
47 1 1 0 684.3761888753263 657.7386522031327 640.124161184246 0 0 0
13012 1 1 0 672.5897439149886 686.1411767869109 686.5356539635272 0 0 0
49 1 1 0 661.1905821171557 678.6970726067336 638.1498567360334 0 0 0
50 1 1 0 661.15119909572 642.472295163782 668.8685020943376 0 0 0
930 1 1 0 683.5485801463051 686.2820970076574 672.8190546684875 0 0 0
52 1 1 0 680.7976722544007 640.4372493399998 663.5268796015513 0 0 0
1557 1 1 0 649.6800233384599 677.8251687209191 686.1827375227102 0 0 0
54 1 1 0 679.6661087753198 639.9900022648709 662.8515630184626 0 0 0
55 1 1 0 669.8745139499836 640.0603584544766 684.5621849354188 0 0 0
56 1 1 0 642.1460582175171 670.2500722229511 640.3349357930457 0 0 0
57 1 1 0 683.9731252214707 640.9758220312877 666.3238749245531 0 0 0
58 1 1 0 653.2421836321873 655.9792571859292 678.0298400181681 0 0 0
59 1 1 0 640.4758147308895 685.5614370064642 668.9172382458594 0 0 0
60 1 1 0 640.071289911094 653.6343855201496 682.0667922420539 0 0 0
61 1 1 0 661.2858011139404 639.620079329892 673.7737495872432 0 0 0
62 1 1 0 636.8725164546535 641.3866903245087 662.2518230095327 0 0 0
63 1 1 0 644.7276592986888 673.7434643865648 639.4387435600029 0 0 0
64 1 1 0 683.4614807236904 637.7169082638028 686.2859895513088 0 0 0
8842 1 1 0 682.706658639567 677.0017168897809 686.4842076071833 0 0 0
4273 1 1 0 666.3906144096394 684.3924101314819 636.6071731160944 0 0 0
67 1 1 0 659.9806462170839 642.4457414833709 669.6859896672688 0 0 0
68 1 1 0 659.677890989095 641.1374585800895 670.171119962707 0 0 0
69 1 1 0 678.929722433614 677.9273280927334 680.3300645223316 0 0 0
70 1 1 0 676.3560237524945 679.4605271317581 679.7099586260169 0 0 0
71 1 1 0 662.483404950619 640.0560309195251 674.2848164083673 0 0 0
72 1 1 0 643.5766165226692 670.7631024073942 642.6172833374496 0 0 0
602 1 1 0 636.348579029026 651.1241659155883 645.5934903703074 0 0 0
74 1 1 0 639.7393734570037 656.7766230193431 667.9079870959562 0 0 0
75 1 1 0 674.2989154224348 681.090681483248 679.2422735665634 0 0 0
76 1 1 0 648.3377715075294 685.1020102732147 677.3378921285529 0 0 0
77 1 1 0 660.5665265842041 640.5113711679166 673.0617064030156 0 0 0
78 1 1 0 663.0413337594194 684.518968166631 680.4933950406444 0 0 0
79 1 1 0 660.8027674146449 683.0209286991911 677.1683070371214 0 0 0
80 1 1 0 642.8631457233165 649.236697280858 643.2309337623764 0 0 0
81 1 1 0 641.1641967689966 685.5637423874309 670.3260897690028 0 0 0
82 1 1 0 644.6835639522407 672.7713916333056 640.7372813534997 0 0 0
83 1 1 0 643.1352389303943 654.0895789048125 672.1522022352849 0 0 0
84 1 1 0 655.2533412525554 673.5708435356933 684.9982788221471 0 0 0
85 1 1 0 677.0813392781486 684.2856066372882 673.9375631139695 0 0 0
86 1 1 0 641.1061738681218 671.1393437483914 640.9246621638299 0 0 0
87 1 1 0 646.4575908665896 668.9016619491885 643.7317817351317 0 0 0
88 1 1 0 644.0063839569436 669.9101932620441 645.3220099527309 0 0 0
89 1 1 0 664.4683806865443 643.1494984678243 679.1392558912407 0 0 0
90 1 1 0 670.9190710103853 685.0176516854607 685.1843204645456 0 0 0
91 1 1 0 663.3800451116655 642.8422583113129 672.0866374199684 0 0 0
92 1 1 0 648.2321179579301 683.3332114254101 679.0833571567023 0 0 0
93 1 1 0 648.700935254569 682.8663466180392 676.8562300737185 0 0 0
94 1 1 0 643.2748608824122 670.0222846800481 641.1383687279307 0 0 0
95 1 1 0 641.9862000360737 672.426232375605 641.222019566342 0 0 0
96 1 1 0 647.8321764485579 678.3506603568758 683.1841592841354 0 0 0
97 1 1 0 640.4589167431172 644.3249968750948 637.5335300199358 0 0 0
98 1 1 0 662.3510303280195 658.493938320611 638.7815876604296 0 0 0
99 1 1 0 652.5502411631137 644.804321579811 641.049669270754 0 0 0
100 1 1 0 680.252052919704 684.5723442460322 643.8162042129887 0 0 0
101 1 1 0 657.2391699359478 653.7399414010897 638.9444358578603 0 0 0
102 1 1 0 674.617325958485 681.2294533598705 681.7902317575281 0 0 0
103 1 1 0 672.7691033005973 682.6433122567108 682.9250811671943 0 0 0
8775 1 1 0 646.1128428405184 648.6513672434029 636.679669822272 0 0 1
105 1 1 0 639.6222423572422 673.0028280292538 641.7222012810548 0 0 0
106 1 1 0 642.6633071752286 669.693608968295 644.9650349717213 0 0 0
107 1 1 0 644.624374388755 673.6985747976416 642.0266724310104 0 0 0
108 1 1 0 652.2305990949764 675.3443228984804 683.2158752243532 0 0 0
109 1 1 0 647.5941122541968 681.9773691849721 676.7505702569557 0 0 0
110 1 1 0 641.5108414312774 672.3673936228868 643.1795150944145 0 0 0
111 1 1 0 649.8225856062347 683.1885290000344 637.4068221290531 0 0 0
112 1 1 0 642.4571369918805 671.9521113052363 644.0912731255179 0 0 0
113 1 1 0 641.9216556520329 670.8796378936185 644.8892608446554 0 0 0
114 1 1 0 654.517249666241 642.3147228246348 640.7333607175764 0 0 0
115 1 1 0 638.9920567087273 672.3324364043899 640.4940007131719 0 0 0
116 1 1 0 649.1776685548291 682.707363386392 681.1982320235417 0 0 0
117 1 1 0 670.1542849399472 684.0320623225348 681.7790633842819 0 0 0
118 1 1 0 664.3530149046729 684.2391395533359 680.0025004771838 0 0 0
119 1 1 0 673.7902207259644 640.6442197484736 640.2465634723467 0 0 0
120 1 1 0 674.8112233114881 639.0473398229797 642.5784527724435 0 0 0
121 1 1 0 672.9036976864855 639.5434848897166 640.0043908383877 0 0 0
122 1 1 0 672.7087771083299 639.4620322160214 638.5469963324285 0 0 0
20329 1 1 0 686.1726708853435 640.6125691808762 655.4295971810604 0 0 0
124 1 1 0 671.8516317632045 638.6802788316185 637.8646898396383 0 0 0
571 1 1 0 636.4873480155653 660.7990426146871 664.8295188197417 0 0 0
8824 1 1 0 680.6447151191261 657.6449711266739 636.5981708958899 0 0 1
127 1 1 0 653.3695554571663 683.6815423051363 639.3853952732067 0 0 0
128 1 1 0 639.3599682017681 684.7902808689813 668.5078654856384 0 0 0
129 1 1 0 674.6534682766895 638.4784265910355 641.3267576313887 0 0 0
130 1 1 0 675.7068659971665 638.4759842012211 640.3932018795243 0 0 0
131 1 1 0 673.3610625683787 638.346238964687 640.670880341928 0 0 0
132 1 1 0 637.1882600547124 677.8875157718644 676.9525815406505 0 0 0
133 1 1 0 638.596315994434 655.9408562936378 668.0276837846314 0 0 0
621 1 1 0 664.460458658447 686.2675710609866 637.446065186652 0 0 0
9930 1 1 0 636.6609414454093 686.395890063599 649.5906268288119 0 0 0
136 1 1 0 660.5979814284594 657.1561777082286 637.235661588275 0 0 0
4082 1 1 0 653.3089820666787 683.9514385089883 636.6972321261878 0 0 0
138 1 1 0 639.9675548784861 683.5556724266843 670.4686817632997 0 0 0
139 1 1 0 675.3154450052866 637.9978941023963 639.0329098729358 0 0 0
140 1 1 0 674.8525944820557 638.6766606181225 637.6299992808168 0 0 0
2594 1 1 0 685.7239941707797 659.8759659620794 665.1458189889886 0 0 0
142 1 1 0 636.4979418287534 670.6746082774686 680.107791916901 0 0 0
143 1 1 0 670.4866088060107 661.9970141096766 637.7343349502248 0 0 0
144 1 1 0 657.1212823199711 639.043882498224 652.6178739712963 0 0 0
145 1 1 0 638.8584600011877 652.4665522173716 674.3082298664201 0 0 0
21859 1 1 0 635.9359015870739 665.6472780691657 662.2790442987225 1 0 0
147 1 1 0 644.6568130895826 670.0026497881856 639.2782395674734 0 0 0
148 1 1 0 675.955111685215 655.1225861064331 640.9127566321336 0 0 0
4565 1 1 0 642.1943726656018 642.7202791257324 686.1126817682892 0 0 0
150 1 1 0 665.9022622305376 683.2664604040014 637.3525865433858 0 0 0
151 1 1 0 638.442207983719 683.6641913737684 672.407258631525 0 0 0
4181 1 1 0 636.0733385416144 650.213493034975 674.1145825137712 0 0 0
453 1 1 0 686.0904529114242 662.5955246415668 651.1088613700708 0 0 0
11841 1 1 0 664.0399458683518 637.0279921758282 667.9576455014933 0 1 0
12417 1 1 0 638.4503521298618 636.8319796331309 658.6570562919458 0 1 0
156 1 1 0 677.9713919061279 654.0773684492744 641.5708653490864 0 0 0
157 1 1 0 671.4614513856056 684.0222910006387 681.3316931611173 0 0 0
158 1 1 0 651.1782143633595 645.4867415685741 641.3707247024041 0 0 0
159 1 1 0 676.4646410530414 638.8490227874386 660.4851514064262 0 0 0
160 1 1 0 678.3823973607664 640.5442135965662 639.090802197669 0 0 0
161 1 1 0 656.0914219933652 640.0270489638663 645.4076339632444 0 0 0
162 1 1 0 648.7080696483953 646.747531304026 641.9557378320939 0 0 0
163 1 1 0 673.011540543889 682.6316985317408 677.4697536572029 0 0 0
164 1 1 0 638.5068041723652 680.8844018597274 675.4384526721193 0 0 0
165 1 1 0 675.1400989402476 679.9528483008661 679.2603256344764 0 0 0
166 1 1 0 640.583284920232 671.3874754524891 642.3934630398437 0 0 0
167 1 1 0 645.6537339416951 670.9222140429293 639.1463549999377 0 0 0
168 1 1 0 636.8081881372083 655.2565319612518 651.6432672920987 0 0 0
169 1 1 0 647.3640266571854 647.2937025050596 642.2132570137231 0 0 0
170 1 1 0 665.5321964789288 641.286487512621 680.3261540601017 0 0 0
171 1 1 0 655.3983993583277 637.5861728973186 640.5222786264288 0 0 0
172 1 1 0 648.8660446603287 681.2949503617126 681.1082155546953 0 0 0
173 1 1 0 668.2812553235511 683.3637819120983 678.8178537701467 0 0 0
174 1 1 0 676.7863963659294 654.8284410343736 642.0027194212662 0 0 0
175 1 1 0 677.4769889980912 639.079177873773 661.440291795554 0 0 0
9069 1 1 0 660.2596284018408 636.5939347837793 664.5345078687968 0 1 0
177 1 1 0 670.1991855091987 684.6427546655866 678.7014886118397 0 0 0
178 1 1 0 637.5435748913507 656.0267023666543 667.0585860858505 0 0 0
179 1 1 0 651.7526972407521 679.8231012755491 638.0310093029854 0 0 0
180 1 1 0 664.2602667417948 641.4757784298516 685.9464338698696 0 0 0
181 1 1 0 674.6508612672559 655.5348655883427 641.0816530037287 0 0 0
182 1 1 0 651.3533677359276 674.689882369688 639.5101100938512 0 0 0
183 1 1 0 668.7937777634144 658.339316259305 640.4592295473799 0 0 0
184 1 1 0 646.442159610802 678.0711472475566 683.2524112757349 0 0 0
185 1 1 0 668.2430119992565 658.8443865064163 639.2983634228979 0 0 0
186 1 1 0 649.1210031384015 685.1906529955321 680.2582956262975 0 0 0
187 1 1 0 658.9096361160458 655.417598210669 637.3745630206313 0 0 0
188 1 1 0 636.5670826217507 684.8109378296265 669.3839762972193 0 0 0
189 1 1 0 673.7969642160513 681.6044006936514 682.9732499207088 0 0 0
190 1 1 0 654.0628107500723 679.7454302142402 638.9527885284382 0 0 0
191 1 1 0 638.7630686345108 683.8366647487514 669.5450551698679 0 0 0
192 1 1 0 679.8441770016227 653.3377460848315 639.7664700137497 0 0 0
193 1 1 0 645.5651784243751 669.5475421097476 641.4788386757783 0 0 0
194 1 1 0 648.1903617299523 678.70310608703 637.2549851810638 0 0 0
195 1 1 0 652.5161151522381 643.7272388946533 642.1500209237836 0 0 0
196 1 1 0 650.1926505588939 644.8259427085859 642.0822008613123 0 0 0
197 1 1 0 650.2066581012751 643.3714780832735 641.9983346377197 0 0 0
198 1 1 0 649.0532075291218 642.7076172604618 641.6020092282055 0 0 0
199 1 1 0 647.8427511859841 643.3550647968955 641.6467080881145 0 0 0
200 1 1 0 646.7727562526001 642.9479570963601 640.8477025549141 0 0 0
201 1 1 0 645.6080221830866 643.7200621791843 640.7116331016273 0 0 0
202 1 1 0 644.6565708540099 643.4259745506236 639.7414168629832 0 0 0
203 1 1 0 642.7662280312043 642.8770577546704 637.7356946398023 0 0 0
487 1 1 0 657.5256514379868 682.1451892790452 686.2157533380622 0 0 0
205 1 1 0 648.9428681061255 645.3636281017675 642.3634241598436 0 0 0
206 1 1 0 647.7612515981879 644.5575487526928 642.3695428471871 0 0 0
207 1 1 0 646.3681036705001 646.460513481714 642.8556308858333 0 0 0
208 1 1 0 646.4393256056017 645.0858173161112 642.4902919182834 0 0 0
209 1 1 0 645.0632118774445 647.070273399558 642.9760387511634 0 0 0
210 1 1 0 643.921806035449 646.3038786105667 642.5889559425461 0 0 0
211 1 1 0 642.2395880102582 647.8524773104403 643.6128955729068 0 0 0
212 1 1 0 642.602603702742 646.7597783179051 642.7724512305651 0 0 0
213 1 1 0 640.8742446865198 647.8560717233984 643.9894278096046 0 0 0
214 1 1 0 639.9279859595902 647.33787333629 643.1543953397202 0 0 0
215 1 1 0 638.3756835442056 647.4883555942184 644.463722438241 0 0 0
216 1 1 0 638.6122831962386 648.09927702578 643.0789104593722 0 0 0
217 1 1 0 637.6850472162574 646.2995226785007 644.598356842127 0 0 0
11851 1 1 0 641.3006848978823 636.8906210569751 658.4518465943097 0 1 0
219 1 1 0 645.353599197737 644.6274422925501 641.696105461458 0 0 0
220 1 1 0 644.116182091692 645.2053533914171 641.7332458426446 0 0 0
221 1 1 0 643.107548721384 644.870038161364 640.8460520937268 0 0 0
222 1 1 0 641.5426483830025 646.2028340916345 641.9385992995584 0 0 0
223 1 1 0 641.8624955936739 645.4278610323008 640.7965330472156 0 0 0
224 1 1 0 640.1516099624004 646.4577153120966 642.1365749665196 0 0 0
225 1 1 0 639.1239531743821 646.2463089354809 641.1788221011931 0 0 0
226 1 1 0 637.3633110206661 647.5066831568458 642.4960379443675 0 0 0
227 1 1 0 637.7608131456838 646.7275878041852 641.3243725837268 0 0 0
2713 1 1 0 686.1081687210769 660.6171939223291 661.0507078369152 0 0 0
229 1 1 0 669.3639071780266 662.8304542174074 637.9568051270627 0 0 0
230 1 1 0 643.4091015340263 644.021821523578 639.8284023730245 0 0 0
231 1 1 0 642.4707024994339 643.7068325627232 638.8129077310036 0 0 0
232 1 1 0 640.8804700055192 645.1372260927808 639.7985152305449 0 0 0
233 1 1 0 641.2575307176542 644.3899802130014 638.6529513029203 0 0 0
234 1 1 0 639.5876016960101 645.6752903510449 639.9550054887127 0 0 0
235 1 1 0 638.6906665007934 645.5332503455609 638.915640094408 0 0 0
236 1 1 0 636.9256617472008 646.6546457059942 640.1841289163249 0 0 0
237 1 1 0 637.4110335292504 646.0188285271894 639.0497505896934 0 0 0
238 1 1 0 676.6965059812646 679.8582278587759 681.0637693301144 0 0 0
239 1 1 0 639.7171422811074 675.2879011367976 682.0860343865231 0 0 0
12948 1 1 0 660.5331785269154 636.965935145571 665.8813874105274 0 1 0
241 1 1 0 639.1666662599742 664.1578888619745 662.4123720367303 0 0 0
242 1 1 0 656.5182822105965 638.7071593194928 645.3639465868885 0 0 0
243 1 1 0 637.1860275505865 656.8211654826405 675.0226256622823 0 0 0
244 1 1 0 642.1916147164166 654.050186758646 671.1154498208126 0 0 0
245 1 1 0 665.0694924351451 639.7332709539271 678.1155080983261 0 0 0
246 1 1 0 666.2428921928026 659.46682869843 638.1924205759675 0 0 0
247 1 1 0 667.8419487866761 639.7139189949195 683.2953017538343 0 0 0
2049 1 1 0 638.0446461925039 673.5630444403821 686.5815633119032 0 0 0
249 1 1 0 639.1057027026104 653.4292919247112 678.9323899050956 0 0 0
250 1 1 0 674.1831157823112 681.6737262593444 680.5056133977203 0 0 0
251 1 1 0 636.6669515353016 672.0218602913307 680.5120712654702 0 0 0
252 1 1 0 657.1180062828195 639.4438180868533 657.3737042530456 0 0 0
253 1 1 0 643.3691460625315 672.0087822173347 641.4805459961862 0 0 0
254 1 1 0 673.9823524021865 656.234615116122 640.0591506956739 0 0 0
255 1 1 0 645.3708257973459 680.3364258966452 676.6687721410402 0 0 0
256 1 1 0 664.598693885181 643.1401565176519 676.7485248950167 0 0 0
257 1 1 0 669.6560440281826 642.8120809035524 684.2968339870539 0 0 0
258 1 1 0 661.0178657980518 641.8997911071211 672.8115461970197 0 0 0
259 1 1 0 676.2266608660858 655.4380963755142 643.2827024825555 0 0 0
260 1 1 0 673.9599067439491 655.5943416985743 642.3877601992102 0 0 0
261 1 1 0 663.0294464810473 641.3161137979021 673.8444207176063 0 0 0
262 1 1 0 646.0588618022248 671.7707203762195 640.4835503451261 0 0 0
263 1 1 0 659.9669253501092 642.7952571532327 672.6273452522386 0 0 0
264 1 1 0 664.6280818685514 641.0065325482376 675.6157717153052 0 0 0
265 1 1 0 673.8812667860061 681.5506815881533 677.9781437913987 0 0 0
266 1 1 0 645.5366511780048 678.4160303743619 678.6136176964121 0 0 0
267 1 1 0 636.4116838155463 638.6402385256079 670.4643663293475 0 0 0
268 1 1 0 658.3112531692163 637.7375415065227 679.0159550610051 0 0 0
269 1 1 0 663.715162576273 679.8572703815177 636.7593373476928 0 0 0
270 1 1 0 664.1813273363653 639.6659675401776 675.8790796517857 0 0 0
271 1 1 0 658.8057763833643 642.1992230748275 672.1982732065912 0 0 0
272 1 1 0 685.0350474897024 683.5941543500517 647.4874990881577 0 0 0
273 1 1 0 640.8562617692884 677.2166100664239 677.3805579679765 0 0 0
274 1 1 0 672.65160640564 656.2274164115017 642.6711413464943 0 0 0
275 1 1 0 637.5323037394842 684.5443107019598 666.8845392000834 0 0 0
276 1 1 0 640.5088110409325 649.6348820945785 640.4091021803632 0 0 0
277 1 1 0 646.4665329634628 671.2185977060532 642.8152791803395 0 0 0
278 1 1 0 666.4071029201979 679.9709426905544 640.9749892108188 0 0 0
279 1 1 0 678.4306916984822 640.6970330398835 662.9412431679916 0 0 0
3510 1 1 0 641.484123942951 686.3512452822395 663.5536457443917 0 0 0
4173 1 1 0 635.9788805534147 659.6190938228375 657.9959130060547 0 0 0
282 1 1 0 683.0353495674076 640.8055471762755 665.2844513286556 0 0 0
283 1 1 0 657.266979868314 638.9546780404563 650.1694079200731 0 0 0
284 1 1 0 676.9982569046417 638.945050544445 640.5448019224493 0 0 0
285 1 1 0 656.3927501410176 652.8469963627485 639.6528150267685 0 0 0
286 1 1 0 656.4377086511197 652.8455516849008 641.0803970525352 0 0 0
287 1 1 0 678.6782272932788 641.7540405628037 637.1375717630335 0 0 0
288 1 1 0 654.5551879756625 651.2138292895529 639.773536448043 0 0 0
289 1 1 0 637.0403734660754 678.124134903828 682.2248050257256 0 0 0
290 1 1 0 653.7669766251095 650.314143714112 639.057788988755 0 0 0
291 1 1 0 656.8569157590379 637.3493675328267 640.1420146734127 0 0 0
292 1 1 0 659.758885080978 638.6715649173815 671.7031309459251 0 0 0
293 1 1 0 655.8186138151862 651.857380883751 641.7697229128815 0 0 0
294 1 1 0 654.8920005899068 651.006063228159 641.1103167190089 0 0 0
295 1 1 0 654.7712194165346 649.6964507802861 641.5613705876787 0 0 0
296 1 1 0 653.6358302257773 649.0036615238512 639.5374802914888 0 0 0
297 1 1 0 654.1402137803499 648.7133706019341 640.7995059218688 0 0 0
298 1 1 0 668.0612268540697 658.6179256748245 636.886744076625 0 0 0
299 1 1 0 638.1100135676005 655.4721279103368 663.3587715711192 0 0 0
300 1 1 0 656.1495932802278 650.119442517985 643.4081750153761 0 0 0
301 1 1 0 655.9117796113122 649.2176556568894 642.3868877794438 0 0 0
302 1 1 0 656.1684417046613 648.2718345773328 641.0554114933916 0 0 0
303 1 1 0 654.8773140697091 647.3986860279217 640.9340623136919 0 0 0
304 1 1 0 656.7030526743678 648.5113406151877 639.789877947107 0 0 0
305 1 1 0 654.4194081996262 646.3217300152877 640.1394291115705 0 0 0
306 1 1 0 654.0890255099642 645.0782366103143 640.6574860031193 0 0 0
307 1 1 0 659.151358791075 638.7692900976638 637.6774075237366 0 0 0
308 1 1 0 657.9377866885684 654.7205642294459 640.9788909807235 0 0 0
309 1 1 0 657.345502893636 653.6929457843488 641.6940966976264 0 0 0
310 1 1 0 657.5187721377582 653.5542590554733 643.1021955096255 0 0 0
311 1 1 0 657.1517462483047 652.3261739295908 643.7134070608769 0 0 0
312 1 1 0 656.4356241338148 651.4290172846501 642.9550903858237 0 0 0
313 1 1 0 656.9570052364063 652.3147119602543 645.1224933563309 0 0 0
314 1 1 0 656.6037549216896 651.0798531683467 645.7147574477942 0 0 0
315 1 1 0 655.7567790285506 650.228613595035 644.8380723434544 0 0 0
316 1 1 0 667.0825299256726 659.675741029171 639.3279271395252 0 0 0
317 1 1 0 664.4861377816851 643.1942212843111 674.2900948166929 0 0 0
318 1 1 0 668.3664313189291 644.6822446874262 683.3846568247915 0 0 0
319 1 1 0 666.0112013012972 642.1343884125322 681.2637529070041 0 0 0
320 1 1 0 646.7081739560024 683.1347255284609 674.9848544442331 0 0 0
321 1 1 0 668.7490663622146 641.9150192867676 683.6271728419373 0 0 0
322 1 1 0 653.4850133139831 638.6278982040733 639.5108212845741 0 0 0
323 1 1 0 658.7504373490859 639.1154451492648 659.7455522882655 0 0 0
324 1 1 0 677.3512856716598 640.2466995019759 662.228034211613 0 0 0
325 1 1 0 654.8176774675268 638.6660191390017 639.6058622472469 0 0 0
326 1 1 0 643.6076937371181 670.1281475056213 638.3278450156156 0 0 0
327 1 1 0 658.945601414114 638.570174886643 682.2989450742665 0 0 0
328 1 1 0 678.289700039192 679.599317059688 682.8787432411845 0 0 0
329 1 1 0 659.2859061375196 658.1157890336482 642.8856002541125 0 0 0
13027 1 1 0 676.663399069235 636.5500896418139 654.2659814855118 0 1 0
331 1 1 0 659.3203244852075 658.0851218833385 641.5233173842925 0 0 0
332 1 1 0 637.9181856657968 658.9071507800593 659.4755730142259 0 0 0
333 1 1 0 659.0898495183241 656.8581488333131 640.9061023692958 0 0 0
334 1 1 0 658.9550842035952 658.0791300709038 645.7772807335677 0 0 0
335 1 1 0 658.4745379622824 658.0019076737839 647.2963052377255 0 0 0
336 1 1 0 659.3134977176314 658.1462399613522 644.5122807174026 0 0 0
337 1 1 0 658.8156263895354 656.8645889505398 643.7102216972366 0 0 0
338 1 1 0 658.5163861260585 655.7706944403016 641.6399082256355 0 0 0
339 1 1 0 658.3843850506295 655.766321988721 643.0691518182153 0 0 0
340 1 1 0 657.1168401565144 658.2400376893444 647.7409946795223 0 0 0
341 1 1 0 656.06056864086 657.348005301731 647.4651441530688 0 0 0
342 1 1 0 658.5400160728079 656.6718738656449 646.3764115772278 0 0 0
343 1 1 0 657.4867459654532 655.7674865106325 646.2440416211695 0 0 0
344 1 1 0 657.7198461919506 654.7814363611702 643.8048044309525 0 0 0
345 1 1 0 657.4015310627695 654.7024505631696 645.294420740181 0 0 0
346 1 1 0 654.24046233429 655.0796803133653 647.7881401543661 0 0 0
347 1 1 0 653.1466145791 655.1377772692877 648.6659565794047 0 0 0
348 1 1 0 656.3722613478857 655.9726191200891 647.1297177568295 0 0 0
349 1 1 0 655.5804197873681 654.8272668689848 647.482460097677 0 0 0
350 1 1 0 656.8399918509314 653.5400451940079 645.87171185214 0 0 0
351 1 1 0 656.1703743157885 653.5592975102659 647.0881735829547 0 0 0
352 1 1 0 669.7873023914111 659.2506412379513 649.6469326017227 0 0 0
353 1 1 0 669.2201443510914 659.567620405187 648.3740854320066 0 0 0
354 1 1 0 669.7707917156335 658.825449683952 647.2272159123492 0 0 0
355 1 1 0 669.4780315062486 658.4155018201321 645.8864237006412 0 0 0
356 1 1 0 669.4033876511467 659.673731140565 645.0385066579945 0 0 0
357 1 1 0 668.7249509080335 659.3948206719481 643.7682354595818 0 0 0
358 1 1 0 669.3953653939335 661.4040551775853 642.4241112231858 0 0 0
359 1 1 0 669.0775302433701 662.3973345819521 641.5512936961875 0 0 0
360 1 1 0 669.6949406631855 662.4644429494251 640.3286905285254 0 0 0
361 1 1 0 672.9366957734295 638.293021577772 660.9260544342492 0 0 0
362 1 1 0 671.4620178776671 658.9515993873928 652.0501739500809 0 0 0
363 1 1 0 672.1048536852269 658.992888451917 650.799120080718 0 0 0
364 1 1 0 673.6208417715168 657.2130799387807 651.408797750904 0 0 0
365 1 1 0 673.1214648933297 658.1206582585922 650.4521141352557 0 0 0
366 1 1 0 674.4191840214796 656.187463547747 650.9275926356785 0 0 0
367 1 1 0 675.2613434528008 656.4568262088318 649.8665757221548 0 0 0
368 1 1 0 677.1108224371557 657.3957472751822 651.1199821848113 0 0 0
369 1 1 0 676.6284682110394 656.7442559719973 649.9481833707526 0 0 0
370 1 1 0 677.9282612171334 658.7236035483504 650.8328554901876 0 0 0
371 1 1 0 678.6908218290156 658.7676030469272 649.667601463248 0 0 0
372 1 1 0 680.2976913302962 660.5364626115595 650.3956459598533 0 0 0
373 1 1 0 679.8741862201917 659.5099915877233 649.5086389593039 0 0 0
374 1 1 0 681.4027000127805 661.3056769064975 650.1514613384729 0 0 0
375 1 1 0 682.1797424918469 661.3033830582466 648.9793271107802 0 0 0
376 1 1 0 683.2982160357755 662.0780723627034 648.719614275102 0 0 0
377 1 1 0 671.3060465406719 659.6881434846318 649.5932308808196 0 0 0
378 1 1 0 671.8459815414002 659.206690292349 648.30943859621 0 0 0
379 1 1 0 673.661123648592 658.0965710737355 649.1931457092123 0 0 0
380 1 1 0 673.1527480126715 658.8832976434572 648.1575026688884 0 0 0
381 1 1 0 674.6102076423917 657.1825594416887 648.8257167922642 0 0 0
382 1 1 0 675.2260260480386 657.2477146741239 647.6115882142907 0 0 0
383 1 1 0 677.3083481993316 656.954448323572 648.7216748785717 0 0 0
384 1 1 0 676.5254307522391 656.7656103691287 647.5289761524015 0 0 0
385 1 1 0 678.4188481232541 657.7814986324717 648.6679020735914 0 0 0
386 1 1 0 679.0251078665452 657.8598843226094 647.4194984567154 0 0 0
387 1 1 0 680.5666479019594 659.530402929529 648.2577510190876 0 0 0
388 1 1 0 680.2277111484852 658.5672418099558 647.2859274657458 0 0 0
389 1 1 0 681.7106484569823 660.325398664752 647.978093485689 0 0 0
390 1 1 0 682.4042507098782 660.0199583661613 646.8249530161816 0 0 0
391 1 1 0 671.1054511443149 659.3291317083804 647.137795238024 0 0 0
392 1 1 0 671.6695227998526 659.7421882314163 645.9340710652453 0 0 0
393 1 1 0 673.6975679879897 658.9121740626898 646.8800663521633 0 0 0
394 1 1 0 673.0267399506041 659.5073883842533 645.7729639151418 0 0 0
395 1 1 0 674.744959627508 658.0764105681636 646.5996396893615 0 0 0
396 1 1 0 675.2172857947951 657.9453344877684 645.2735871992725 0 0 0
397 1 1 0 677.1176875693716 656.9266186170892 646.2858309838301 0 0 0
398 1 1 0 676.3037143286896 657.1911244636245 645.1475750128865 0 0 0
399 1 1 0 678.4466474043792 657.2579345949573 646.256147751245 0 0 0
400 1 1 0 679.0157558954809 657.2521450786222 644.9977240510315 0 0 0
401 1 1 0 680.9383025625997 658.2989911936642 646.1278392221786 0 0 0
402 1 1 0 680.3886491218485 657.5888445608296 645.0375317537745 0 0 0
403 1 1 0 682.1087282446999 658.9915580754 645.9737004299375 0 0 0
404 1 1 0 682.8412118957737 658.7357040219533 644.8458220944536 0 0 0
405 1 1 0 670.8128710562013 660.0634828547732 644.8846933775155 0 0 0
406 1 1 0 671.2886506604264 660.3445209581155 643.6040949420267 0 0 0
407 1 1 0 673.4423355134412 659.4059108889629 644.418694125863 0 0 0
408 1 1 0 672.6010890579029 659.7574548025692 643.365285231149 0 0 0
409 1 1 0 674.5700138603157 658.64077760316 644.276203078857 0 0 0
410 1 1 0 675.0665041608668 658.5132982163998 643.0188993685289 0 0 0
411 1 1 0 676.8611063239244 656.8464943036037 643.7538929176386 0 0 0
412 1 1 0 676.3168275025957 657.9616902950985 642.8151443301218 0 0 0
413 1 1 0 678.3270479888104 656.9829207241248 643.8090143537127 0 0 0
414 1 1 0 678.9862229061195 657.2996677939926 642.6722358658583 0 0 0
415 1 1 0 681.0741412569097 657.5271304701652 643.8357368302931 0 0 0
416 1 1 0 680.372413138966 657.3049935353395 642.6674690745959 0 0 0
417 1 1 0 682.3943912653874 657.906005759994 643.791155052059 0 0 0
418 1 1 0 683.0785174291273 657.7475762978909 642.5892312753743 0 0 0
419 1 1 0 670.6554976936372 660.8977637483033 642.431917952604 0 0 0
420 1 1 0 671.2675735603707 660.7632256072843 641.184898738917 0 0 0
421 1 1 0 673.0307745895332 659.4754115994217 642.076623084048 0 0 0
422 1 1 0 672.2886731498437 659.877217248429 640.9738284651194 0 0 0
423 1 1 0 674.3317931646008 658.9800310834539 641.9382075582005 0 0 0
424 1 1 0 674.9607361888451 659.134133987574 640.7181774949873 0 0 0
425 1 1 0 676.9669323045454 658.1367178125795 641.633532253541 0 0 0
426 1 1 0 676.2618570097725 658.7051242128169 640.5876584507072 0 0 0
427 1 1 0 678.3138160398586 657.7626059304615 641.5279284405801 0 0 0