LAMMPS data file via write_data, version 2 Aug 2023, timestep = 50000, units = metal

4276 atoms
1 atom types

646.3130974537094 713.6129025462931 xlo xhi
646.697873179481 713.9371268205288 ylo yhi
646.9207750954504 713.7142249045594 zlo zhi

Masses

1 12.0107

Atoms # full

453 1 1 0 654.4989990792145 678.720356771006 659.9528896881262 0 0 0
1060 1 1 0 664.0341635437503 648.8345861796663 677.8353725382216 0 1 0
1399 1 1 0 649.8301436097494 648.1692041917307 673.5894910125542 0 1 0
3343 1 1 0 646.4718489609759 648.2647436406506 677.2564598605571 1 1 0
1042 1 1 0 652.0429922940195 679.2796284326287 668.036296538236 0 0 0
390 1 1 0 668.4201730225736 647.7171856732191 670.0894845676656 0 0 0
7 1 1 0 648.997949514343 662.2637037711005 678.3272563250166 0 0 0
8 1 1 0 667.5032890123194 649.5225219264322 675.5571254424013 0 0 0
1082 1 1 0 649.7406495504185 647.9162794490053 664.2666605778853 0 1 0
1490 1 1 0 649.6496847387322 649.8772301106637 662.4894759522325 0 1 0
11 1 1 0 660.6167586256911 678.7841421119127 650.9599542887112 0 0 0
1271 1 1 0 652.4670907144952 648.4147851169511 673.971364618395 0 1 0
1033 1 1 0 651.6190156435508 679.6960347419779 666.7330426104947 0 0 0
282 1 1 0 647.6865828167327 661.9889592425349 677.8370209179299 0 0 0
442 1 1 0 664.3916683647662 675.324870471813 650.0977584929485 0 0 0
225 1 1 0 650.8107504870436 678.3744872941799 659.8563135674776 0 0 0
960 1 1 0 664.715337633026 673.7604844481833 647.4551119721043 0 0 1
18 1 1 0 671.9266507961379 647.6798924713104 669.1860932246703 0 0 0
19 1 1 0 676.360785857298 649.3100474738229 670.7875747237213 0 0 0
398 1 1 0 653.4300514767341 660.5829030452028 679.9240564147914 0 0 0
9 1 1 0 648.8476799437772 658.9186461610577 650.5519432371855 0 0 0
22 1 1 0 662.0500416552895 676.2857840751005 649.8333731256421 0 0 0
3304 1 1 0 647.5453282849658 648.1915567600353 665.7433272520976 1 1 0
1514 1 1 0 663.331985098654 648.327837714376 680.1372496936417 0 1 0
450 1 1 0 666.3929109423078 648.9416332401572 675.0542626168341 0 0 0
26 1 1 0 669.0925156901611 657.0044455333929 655.3779172729804 0 0 0
27 1 1 0 669.1994494110529 656.180098891458 656.4776908577645 0 0 0
28 1 1 0 668.1794761374708 658.0865923527988 655.3238794332859 0 0 0
29 1 1 0 667.565197509888 659.1498511880235 654.599925569385 0 0 0
448 1 1 0 660.9899826158552 679.3458335327733 649.7442322701169 0 0 0
903 1 1 0 661.5652552494713 679.0551381567266 647.3550507302584 0 0 1
32 1 1 0 668.2524239592791 651.3024293157313 678.5726947733453 0 0 0
33 1 1 0 663.7884026982671 675.809994028168 651.3368703354986 0 0 0
132 1 1 0 650.3491354723475 659.2970022604798 650.9340290309486 0 0 0
3177 1 1 0 646.7276318606409 659.804078252543 649.5949524695857 1 0 1
1207 1 1 0 651.892344540572 647.150506876247 674.2846933239294 0 1 0
247 1 1 0 679.9618258132487 651.0734180030402 670.2551277656594 0 0 0
171 1 1 0 647.3968413331551 653.0956186873734 659.378546546468 0 0 0
39 1 1 0 660.9178639217319 677.9450039478193 652.0122288232772 0 0 0
330 1 1 0 648.6850953655796 647.7511676734046 678.3062437458157 0 0 0
319 1 1 0 655.9824953365611 667.2041087323519 678.3906645342956 0 0 0
42 1 1 0 649.8020468520212 661.1508019765423 678.7702621841577 0 0 0
43 1 1 0 662.8531260773219 674.876587225255 653.3831449794498 0 0 0
44 1 1 0 664.9148802938997 673.8706134314141 652.5569344931804 0 0 0
303 1 1 0 651.396942315542 678.2135528748031 658.526500790839 0 0 0
46 1 1 0 670.8631971802016 650.8482966273444 677.8503839528197 0 0 0
1240 1 1 0 664.0986785720072 649.078673615407 679.2308121088405 0 1 0
267 1 1 0 679.6722044314629 659.1595134868157 676.7385142412853 0 0 0
49 1 1 0 651.0533771545172 661.5087430356591 679.349064816066 0 0 0
305 1 1 0 672.9410548428415 646.7708096874737 668.6974836630465 0 0 0
863 1 1 0 649.1053000636668 661.5979940166745 648.2467394456214 0 0 1
325 1 1 0 666.2194438640098 658.6623831666878 647.2149629977328 0 0 0
12 1 1 0 651.556263636528 648.5904729840717 647.4315177240032 0 0 0
1065 1 1 0 652.0786751389655 647.8045932288569 665.2732449321743 0 1 0
1084 1 1 0 650.5944763261864 648.7713847685334 672.4959685670455 0 1 0
170 1 1 0 648.7718596012402 651.3148277569599 660.64656115819 0 0 0
865 1 1 0 648.721588298615 660.6506833536142 647.2883901376225 0 0 1
1165 1 1 0 649.1115059728997 649.1611403598475 663.5639360649029 0 1 0
745 1 1 0 648.0542968639581 663.8504439761675 647.142286901649 0 0 1
1051 1 1 0 666.0695654964875 650.393563227204 678.8117205736227 0 1 0
334 1 1 0 648.1993008774588 664.4697202942714 678.8482982894903 0 0 0
62 1 1 0 665.5134415754325 673.5723360624261 651.2876244107074 0 0 0
205 1 1 0 668.9101233194618 647.2468951853098 665.1681942902894 0 0 0
64 1 1 0 661.6408199313479 676.7279670631222 652.09946623037 0 0 0
65 1 1 0 663.9937806503381 674.9716085932148 652.5057943439379 0 0 0
1121 1 1 0 651.7924414676816 648.0996534536422 662.9354196016507 0 1 0
67 1 1 0 669.8058734170313 650.3671349043294 675.5701509728059 0 0 0
68 1 1 0 658.1474178845887 657.6615315832786 661.1916600027714 0 0 0
69 1 1 0 658.0660406971054 658.916622855639 660.6043687971535 0 0 0
70 1 1 0 659.3603828336379 656.9424427812722 661.1194076435211 0 0 0
71 1 1 0 659.2477211216553 659.3608722665059 660.0394898156295 0 0 0
72 1 1 0 660.5454737535432 657.4026976417504 660.4627761479967 0 0 0
73 1 1 0 661.7479982423915 656.7241838092705 660.7020355373917 0 0 0
74 1 1 0 660.3311147518167 658.5096452842764 659.5644275975319 0 0 0
75 1 1 0 661.0697076396766 658.8562485920608 658.493593805618 0 0 0
1197 1 1 0 649.9136199178669 647.5310279957852 675.8926788302779 0 1 0
77 1 1 0 666.3720167013475 658.162367441903 649.8828983668544 0 0 0
3319 1 1 0 646.4089858740765 648.1566929897414 674.8859993746744 1 1 0
79 1 1 0 667.3262621027019 658.9506784090604 650.9004687203253 0 0 0
80 1 1 0 666.9203013709407 658.5551937298394 652.2517988935388 0 0 0
81 1 1 0 665.1533432921565 658.2260382340495 650.8144142854806 0 0 0
82 1 1 0 665.5977646798043 658.0813154740762 652.1993233297093 0 0 0
83 1 1 0 664.6282567691742 658.1993138593069 653.1823599344053 0 0 0
84 1 1 0 663.780654102213 659.1538105971998 653.7693075537571 0 0 0
85 1 1 0 663.3900829320665 658.8477200649969 655.0950517878479 0 0 0
86 1 1 0 665.7136911068111 660.0577574084268 649.6880723686978 0 0 0
87 1 1 0 666.8628679245752 660.3949437614062 650.5690875812426 0 0 0
88 1 1 0 667.2988821690158 659.5045249240517 653.2680645223434 0 0 0
89 1 1 0 664.5601571313822 659.5511704414159 650.5426199586994 0 0 0
90 1 1 0 664.1970254717138 660.4606656208219 651.6835672970961 0 0 0
91 1 1 0 666.4931875545716 661.1332530274404 651.693903323409 0 0 0
92 1 1 0 665.1128296298273 661.5682389040923 651.7420239702266 0 0 0
93 1 1 0 667.0446395818094 660.9124079081091 652.9985002577571 0 0 0
94 1 1 0 666.4413516135646 661.615056240762 654.0084922946446 0 0 0
95 1 1 0 663.4300352445547 660.2748993827399 652.9463380009423 0 0 0
96 1 1 0 662.8801245155075 661.4546725325523 653.493839350394 0 0 0
97 1 1 0 664.759965216706 662.6453498759475 652.6413021939039 0 0 0
98 1 1 0 663.3295330606222 662.7293801601643 652.9248060357521 0 0 0
99 1 1 0 665.614026400762 662.7464724933831 653.8020131226924 0 0 0
100 1 1 0 665.0457941456178 663.1145096708658 655.1466704968727 0 0 0
101 1 1 0 662.6947117191522 661.8687122755655 654.8744651335807 0 0 0
102 1 1 0 662.6537781081039 659.6873549511093 655.9660258761114 0 0 0
103 1 1 0 663.0424336384672 661.0693803676919 656.0157036280171 0 0 0
104 1 1 0 661.9318062326531 659.3135066853954 657.1071814099969 0 0 0
105 1 1 0 662.6472430120955 663.2992795224792 654.9090951205205 0 0 0
106 1 1 0 663.8799389281456 663.9266113599142 655.389914748025 0 0 0
107 1 1 0 662.6722533175625 663.856098868604 653.5570756623844 0 0 0
108 1 1 0 662.774555186929 665.2760383534305 653.532499484008 0 0 0
109 1 1 0 663.9911372072925 665.3203006126788 655.563748597309 0 0 0
110 1 1 0 664.6494865262955 665.8905404021177 656.62339254756 0 0 0
111 1 1 0 663.278340997957 666.063696693631 654.5706824762633 0 0 0
112 1 1 0 663.0714066822507 667.3882360047991 654.7226234309171 0 0 0
864 1 1 0 648.9128232735275 662.9543782612711 647.8098383047898 0 0 1
1129 1 1 0 649.6164409640835 647.3771623044768 666.686715300355 0 1 0
136 1 1 0 649.9728096393798 648.824307702062 671.2518732100447 0 0 0
1234 1 1 0 653.971653342643 647.855636770719 671.7763417551613 0 1 0
78 1 1 0 666.1107201840737 658.9764335296545 648.5550147679918 0 0 0
118 1 1 0 665.1957905709421 672.1724494453096 650.9279493093915 0 0 0
372 1 1 0 676.9854747092353 647.4612254326358 669.3442710758162 0 0 0
120 1 1 0 673.1150037455964 651.0140568916318 673.2894114552881 0 0 0
184 1 1 0 667.0243889713146 647.0081975737503 662.215531530504 0 0 0
23 1 1 0 646.4339236501123 655.5322325973885 660.78736856262 0 0 0
123 1 1 0 674.5470242702673 651.1041693378799 673.7684572414834 0 0 0
124 1 1 0 662.6474093666573 676.5956401228459 651.0787342019576 0 0 0
169 1 1 0 648.4579294458323 652.6227047194798 660.2727273019455 0 0 0
371 1 1 0 676.0693620771808 651.2892109584473 671.8452513890481 0 0 0
1511 1 1 0 654.2580544872126 680.2245857296831 657.594279381997 0 0 0
400 1 1 0 663.4010959283272 674.9932672425703 649.0167359676877 0 0 0
129 1 1 0 669.8455032603604 650.3054635544129 676.9738184672126 0 0 0
1431 1 1 0 653.457161773675 646.7364939597668 671.0549214861735 0 1 0
131 1 1 0 662.8303362344094 671.7401864017959 651.5067821777495 0 0 0
983 1 1 0 648.94235177302 648.0075911360672 665.6126520604519 0 1 0
133 1 1 0 668.8768313547 649.698467376977 673.5096232052572 0 0 0
134 1 1 0 664.4621702236025 672.5864488806469 653.1617105764576 0 0 0
175 1 1 0 650.2535928707243 659.9940658188909 649.5784288792986 0 0 0
1510 1 1 0 652.5132042111275 679.5192260545365 663.2067667370691 0 0 0
20 1 1 0 647.6509200942222 665.0785278622798 680.0430881610356 0 0 0
114 1 1 0 672.9864042071218 653.8803206850492 679.4720423433525 0 0 0
139 1 1 0 675.4276284865941 650.2045909704307 671.2162141729359 0 0 0
928 1 1 0 669.1335796591662 652.883284328222 680.179646057021 0 0 0
141 1 1 0 668.4836385671817 656.3645009262211 657.6753810982051 0 0 0
142 1 1 0 667.9458977541439 657.6392802193195 657.8050144443943 0 0 0
143 1 1 0 666.8594255765424 657.9149359599995 658.6772724223839 0 0 0
144 1 1 0 665.9850230934823 658.962727825945 658.1902846260325 0 0 0
145 1 1 0 666.1409145735497 658.772227915208 656.6367943873787 0 0 0
146 1 1 0 667.6189988231076 658.2549246738499 656.6219851369368 0 0 0
147 1 1 0 667.9507470626002 655.3353061006563 658.4857069668011 0 0 0
148 1 1 0 666.6171507439981 655.2940245553654 658.987289790859 0 0 0
149 1 1 0 665.5935487450007 653.3003533907563 660.1369237221218 0 0 0
150 1 1 0 665.61606850523 654.342300698269 659.152185664326 0 0 0
151 1 1 0 664.5976318594347 653.5567715670563 661.1550607563167 0 0 0
152 1 1 0 663.7147133250035 654.6125874569611 660.9773256255321 0 0 0
153 1 1 0 665.9387741560437 656.6980244904462 658.8951377679471 0 0 0
154 1 1 0 665.2430533666595 656.5711884652983 657.5058038457562 0 0 0
155 1 1 0 664.3374940688088 654.6678536379046 658.6518041102428 0 0 0
156 1 1 0 664.3560471284866 655.5130877297771 657.5120441688114 0 0 0
157 1 1 0 663.400062536274 654.997161406086 659.642715724309 0 0 0
158 1 1 0 662.7274957559891 656.3930762047644 659.5476880597118 0 0 0
159 1 1 0 665.1562637381411 657.543347273928 656.5628294777247 0 0 0
160 1 1 0 664.0325109735031 657.6756667400239 655.6685465676594 0 0 0
161 1 1 0 663.0909577942658 655.9324323745676 657.0570180929377 0 0 0
162 1 1 0 663.1356039190435 656.5073100315108 655.7598263724436 0 0 0
163 1 1 0 662.3294896174721 656.647195481565 658.035840113445 0 0 0
164 1 1 0 662.5038234604191 658.1707274930906 658.0329245634426 0 0 0
380 1 1 0 671.4302283774466 653.2009322168557 677.4076486664537 0 0 0
3711 1 1 0 646.842296075646 648.4892059784644 664.5202854776604 1 1 0
167 1 1 0 674.2771144645014 646.8993661037703 669.0389114898663 0 0 0
168 1 1 0 672.5874137823747 653.3349982995187 678.2590203263344 0 0 0
3171 1 1 0 646.6185407372466 658.4637816062375 649.1332006201313 1 0 1
61 1 1 0 646.9869015955002 654.422562931433 659.7692929492035 0 0 0
1056 1 1 0 648.8376279807127 650.0816970615853 661.2811434318753 0 1 0
411 1 1 0 679.8462832393554 659.5314155238212 679.4481550492027 0 0 0
173 1 1 0 668.580218044052 650.3506805409095 677.5997247169622 0 0 0
174 1 1 0 667.4596512610574 649.790372685589 676.9152914082681 0 0 0
47 1 1 0 664.8055035649857 671.8775945754251 649.5795123665422 0 0 0
3299 1 1 0 647.8909033781603 647.9495541421495 670.0194020462524 1 1 0
177 1 1 0 649.1460199292789 660.1924122457364 679.5483018698113 0 0 0
178 1 1 0 663.0617424332141 668.7385076009303 654.6664605348814 0 0 0
179 1 1 0 667.6906512898777 649.3332615971902 662.379289660596 0 0 0
180 1 1 0 666.5474661506328 650.9823544873844 660.9143884240434 0 0 0
181 1 1 0 665.4822405046172 649.9950050921198 660.9523595486767 0 0 0
268 1 1 0 679.153492796982 661.4363195830289 677.0843209432413 0 0 0
183 1 1 0 667.0233398658373 648.3101901154503 661.6309192802512 0 0 0
307 1 1 0 656.5118395047537 665.9258326054024 678.256587465679 0 0 0
185 1 1 0 665.8933791441096 648.6198810899949 660.7898390182888 0 0 0
186 1 1 0 664.71171393471 647.9231216485515 661.3189433634768 0 0 0
1401 1 1 0 665.1999054528121 648.6948630990516 675.7184165770399 0 1 0
188 1 1 0 663.6801708870339 658.5777125500294 658.9066069203276 0 0 0
189 1 1 0 663.8383582403446 657.5090032197849 659.713356398458 0 0 0
190 1 1 0 664.6989642926858 659.4830756319164 658.5606927646469 0 0 0
191 1 1 0 664.4168373888007 660.736379228255 657.9946195035532 0 0 0
192 1 1 0 665.2723067774876 661.89654139279 655.9705407461885 0 0 0
193 1 1 0 666.2236569221352 661.0605189644135 655.2924093337576 0 0 0
194 1 1 0 664.2000679760113 661.3456656949999 656.760928009191 0 0 0
195 1 1 0 666.6565627913334 659.8096144404199 655.5151398337326 0 0 0
196 1 1 0 662.6877320245896 671.2470303699256 653.9710009973804 0 0 0
197 1 1 0 661.9478710510442 671.7308426136409 652.6373388716853 0 0 0
198 1 1 0 662.7194359506888 670.0217739490538 654.523470990039 0 0 0
1175 1 1 0 655.0876557021635 647.6526408459814 672.6332292778999 0 1 0
204 1 1 0 666.5957591892691 646.833513143514 665.4844099645364 0 0 0
201 1 1 0 664.5008182308244 648.7617626653732 662.6558673622426 0 0 0
202 1 1 0 665.2921804658242 647.9565624488556 663.6213534025653 0 0 0
203 1 1 0 666.1537760732961 648.0809249813492 664.8142294051868 0 0 0
3612 1 1 0 646.916902524089 646.9794868582302 662.5922912762545 1 1 0
2548 1 1 0 646.6125177923003 653.3226219208171 648.0148340730989 1 0 0
972 1 1 0 648.0306596471994 660.1084018217604 650.1085583894381 0 0 1
207 1 1 0 664.7377136578848 650.1140022817619 662.1739517427335 0 0 0
208 1 1 0 666.5948455611132 650.6627881161498 664.6020402325628 0 0 0
209 1 1 0 665.0232426371152 651.3856889616048 662.7868705744926 0 0 0
210 1 1 0 666.3886620690101 651.2779303723775 663.2701238778257 0 0 0
211 1 1 0 664.5975316751885 652.6848437958182 662.282183879698 0 0 0
212 1 1 0 666.389020770578 652.2107301428972 660.2518362002463 0 0 0
213 1 1 0 667.0207859520361 649.2736795446222 664.6705104725673 0 0 0
214 1 1 0 668.0891075198546 648.9679775342148 663.7112215368799 0 0 0
215 1 1 0 667.2441700098661 650.7140058268782 662.1823399912388 0 0 0
216 1 1 0 668.6817327615844 647.6795354233825 663.8456209465305 0 0 0
217 1 1 0 677.2293524271698 652.5553063171992 674.6165333285379 0 0 0
218 1 1 0 676.8920837937346 651.2522891359961 674.0990470698847 0 0 0
3775 1 1 0 646.6221341883086 647.4584449240018 670.2781515252789 1 1 0
297 1 1 0 652.7305834738287 647.7486336124474 647.4312748865949 0 0 0
221 1 1 0 649.1480399643532 663.4786889920928 679.0401214830363 0 0 0
222 1 1 0 661.8049320088535 673.801349346811 650.548885890671 0 0 0
1177 1 1 0 652.0120661923735 649.004638344906 672.7363952933658 0 1 0
1173 1 1 0 665.1001316358554 649.2120239402888 677.0184188037699 0 1 0
333 1 1 0 650.2951671101627 647.9394771017941 647.6341338375448 0 0 0
226 1 1 0 672.3662120987096 652.2145708601957 673.756448759549 0 0 0
445 1 1 0 650.0611379160825 679.6420294425563 659.8268199141803 0 0 0
228 1 1 0 663.4002191383972 672.5528289560327 654.080140238059 0 0 0
229 1 1 0 677.9629314454013 653.4042834746891 672.5353345324778 0 0 0
1156 1 1 0 664.0661327597388 647.9956478530753 675.2974935543377 0 1 0
231 1 1 0 678.1885372229993 650.5734748793753 671.8721233369055 0 0 0
21 1 1 0 648.8796176328782 657.9165504038476 649.5172316957254 0 0 0
402 1 1 0 647.2696023437793 664.3247773954288 677.7866618932214 0 0 0
234 1 1 0 668.0921202298937 648.2234991171309 671.3552583192701 0 0 0
502 1 1 0 650.1507497735124 659.0953504876362 648.4734643550046 0 0 1
393 1 1 0 674.6572659095201 647.9419906310067 669.8893481408985 0 0 0
414 1 1 0 661.9900083868945 674.8371859389872 649.6173786370301 0 0 0
1411 1 1 0 648.5571556993273 647.9158362848378 675.9644186803879 0 1 0
239 1 1 0 661.3271310778243 674.1691349096227 651.8814323252639 0 0 0
240 1 1 0 675.6274239394129 650.7966529656891 674.6458220094636 0 0 0
127 1 1 0 649.9294591373241 647.1655922752043 678.3316793321912 0 0 0
242 1 1 0 651.5238908671718 677.63831008364 660.8462330770759 0 0 0
36 1 1 0 653.4300202605642 647.0404750361216 648.4586190705048 0 0 0
1475 1 1 0 652.1037038543446 680.0757670486788 664.4316496727216 0 0 0
245 1 1 0 676.5214161985336 653.6475320226633 672.37299508927 0 0 0
246 1 1 0 679.1551615897935 651.4975658616498 671.323654413286 0 0 0
1134 1 1 0 652.6137818158343 679.7635885250529 665.7426539244094 0 0 0
367 1 1 0 675.4120974823296 652.5008919494961 676.2025807439769 0 0 0
1428 1 1 0 663.0141827291434 647.9415822208429 677.3991688448881 0 1 0
250 1 1 0 678.9923055034154 652.9020348979628 671.6369734006734 0 0 0
3397 1 1 0 646.8394046582083 647.443453595211 666.757984914142 1 1 0
394 1 1 0 673.5881773184092 652.4633681354774 677.7775107376636 0 0 0
253 1 1 0 675.3092670140202 651.0494064655628 676.0130378933902 0 0 0
6 1 1 0 647.6971903103708 660.3675437430901 679.7115476597473 0 0 0
255 1 1 0 678.2329601893396 653.2115701735681 673.9387368742955 0 0 0
3676 1 1 0 647.8597141955645 647.948820715301 677.2059876715723 1 1 0
257 1 1 0 675.8117561187977 654.5676615321261 673.2400471535066 0 0 0
258 1 1 0 676.1396256680052 653.2676364254918 675.2517958182555 0 0 0
259 1 1 0 675.5920023095589 652.6151404278594 672.0102971652667 0 0 0
260 1 1 0 677.155940280379 650.9469249052568 672.7271662142879 0 0 0
261 1 1 0 675.2733442001653 654.1381304309398 674.4871493910005 0 0 0
262 1 1 0 665.040702792031 657.0405914103594 660.1186009443988 0 0 0
263 1 1 0 665.0285434008657 656.5094299590315 661.4598799228716 0 0 0
264 1 1 0 663.816900407751 655.804808534554 661.7990247620971 0 0 0
265 1 1 0 662.5190652440936 656.5246772259967 661.9469457200955 0 0 0
274 1 1 0 672.2660082435386 650.4379664383242 679.8039865327146 0 0 0
413 1 1 0 667.0617835351967 651.2824185580254 679.2359354960997 0 0 0
187 1 1 0 666.3557574343869 674.2953814901751 649.0984870202933 0 0 0
437 1 1 0 677.5655241440744 660.0471177633115 679.8262445703796 0 0 0
1079 1 1 0 652.7994349013948 647.1741274233899 669.7293368509542 0 1 0
379 1 1 0 670.561739762361 647.4883250594646 668.9459158663011 0 0 0
1164 1 1 0 662.2185167664612 647.2349312906161 678.2858669524713 0 1 0
273 1 1 0 673.2615927987895 653.5988393507935 675.7735954670788 0 0 0
1666 1 1 0 660.9748630921296 680.2504620008857 646.9709889962677 0 0 1
1268 1 1 0 649.5803739436619 647.8038657170785 668.0306322465764 0 1 0
860 1 1 0 648.2212327790262 658.2010954564354 647.3309186523805 0 0 1
236 1 1 0 679.7782684190528 649.8075439545571 669.6796316533777 0 0 0
412 1 1 0 678.5848205251415 659.8190028530233 678.8285995366068 0 0 0
392 1 1 0 673.4726791694717 651.026663841313 677.7865779798307 0 0 0
1075 1 1 0 661.8086960237505 646.9473879270342 675.6663904912313 0 1 0
281 1 1 0 673.3807381974085 653.1809124810969 673.450667335264 0 0 0
978 1 1 0 661.4037741344135 678.523052819638 648.6772984266134 0 0 1
1274 1 1 0 648.4621544209914 648.3559035567002 673.5763207512133 0 1 0
284 1 1 0 676.0378031500971 648.2240979187397 670.0364345415077 0 0 0
2 1 1 0 650.2881430357398 657.5414614475358 648.8548149635583 0 0 0
286 1 1 0 662.4315024088788 673.6043495431882 653.8579015815114 0 0 0
994 1 1 0 652.3439462232599 647.5608820118385 661.8609799065722 0 1 0
1040 1 1 0 666.1953482207767 649.9184510765441 677.51084781835 0 1 0
391 1 1 0 671.8685986470887 653.0965080441172 675.9719727409977 0 0 0
122 1 1 0 647.9070869055893 654.9545622463761 661.0082161965519 0 0 0
291 1 1 0 674.2147401593252 653.0739217037665 676.6939450129465 0 0 0
340 1 1 0 651.9152699200318 679.4353621857933 658.0073744021146 0 0 0
293 1 1 0 652.8564861689049 678.162883452055 662.8816347424105 0 0 0
992 1 1 0 654.510139790069 680.0618623218058 667.5144128619901 0 0 0
295 1 1 0 652.7854131331387 677.7163011883368 661.5837231954736 0 0 0
296 1 1 0 653.9924686703612 677.6200001021668 660.7775328032917 0 0 0
309 1 1 0 657.3589678622051 665.2051598811578 679.1462677818365 0 0 0
1049 1 1 0 647.7019168526415 648.9288668319368 663.4811328655953 0 1 0
2529 1 1 0 647.9032797990607 651.4374117230286 647.400312314624 1 0 0
37 1 1 0 665.5326968616764 674.5613557738245 650.2465858102738 0 0 0
369 1 1 0 672.2194593516032 650.5110755316377 678.38277624017 0 0 0
302 1 1 0 662.5628425900142 672.5499630585002 650.3719073591748 0 0 0
2547 1 1 0 647.6649586355296 652.7851150050675 647.2682641526152 1 0 0
1398 1 1 0 662.9844829382758 647.6556669288823 676.077468712234 0 1 0
320 1 1 0 655.2663356595698 667.3258646311241 676.1418782545052 0 0 0
306 1 1 0 655.9404969779916 665.1952299024356 677.137673059605 0 0 0
1130 1 1 0 650.9138371988595 648.8897639742524 670.1330476129567 0 1 0
308 1 1 0 655.6573112398221 663.8767464622472 677.2799304384571 0 0 0
3271 1 1 0 646.6834637277319 650.6846006093167 647.3355969843053 1 0 1
310 1 1 0 654.704639888316 660.8379550565805 679.3927261346362 0 0 0
311 1 1 0 655.3518597099467 662.363523380257 677.4601977914253 0 0 0
312 1 1 0 656.9827011988424 662.8813681141712 679.4281075908011 0 0 0
1404 1 1 0 647.4308702537047 648.2764923697331 662.2303044389763 0 1 0
856 1 1 0 649.1616640811475 660.9746068256218 649.5157948430603 0 0 1
315 1 1 0 656.6130813742778 662.9158744209952 678.1232509466771 0 0 0
316 1 1 0 654.8519570561037 661.2110296741106 678.019461367931 0 0 0
1247 1 1 0 650.6197854051625 648.134339226614 668.8906190179794 0 1 0
1073 1 1 0 651.2532309928641 648.0094636412575 664.2312425374977 0 1 0
1157 1 1 0 652.6862553191206 647.0477011507521 666.2010176820967 0 1 0
3549 1 1 0 647.7807144054121 648.5015499849662 672.3890907118657 1 1 0
321 1 1 0 655.5775501677244 665.9777012040616 676.024381875314 0 0 0
322 1 1 0 661.3968172806856 673.0608176424553 652.8971880375827 0 0 0
15 1 1 0 651.3415349069359 657.3620052017698 649.9927622627639 0 0 0
324 1 1 0 674.0596169527811 649.8629878214471 671.2362296507155 0 0 0
3 1 1 0 663.5817779441252 672.5094482931743 649.3240489380972 0 0 0
326 1 1 0 669.2084322158215 652.2945858656217 678.9202211118748 0 0 0
327 1 1 0 678.9967930688894 647.5457164725374 668.1284463865354 0 0 0
328 1 1 0 671.4801595594234 652.1862766527048 674.8662396700711 0 0 0
329 1 1 0 674.4640809121498 652.4717956924997 672.8832643850967 0 0 0
1038 1 1 0 652.9148880538015 648.8296506804656 671.6646388167597 0 1 0
1421 1 1 0 648.5527194022003 648.5030550988592 671.1411393212896 0 1 0
332 1 1 0 672.9595217498609 650.4700765057999 672.0027974821757 0 0 0
60 1 1 0 661.9399051326909 677.1918091078021 648.7583735332263 0 0 0
974 1 1 0 665.838834875661 672.009785901412 648.5781851351708 0 0 1
335 1 1 0 661.636890669603 675.4544776944721 652.6832322536337 0 0 0
336 1 1 0 668.7531826956235 649.660505583295 674.9320613379602 0 0 0
416 1 1 0 669.6637342909676 648.3630459816827 669.5720478501277 0 0 0
338 1 1 0 678.2822021729783 647.9658856065413 669.2286688722274 0 0 0
339 1 1 0 670.3342363756187 650.8621772468001 671.9802738938604 0 0 0
166 1 1 0 648.8271765758001 653.7619138574786 661.1594663110852 0 0 0
1493 1 1 0 650.4848162798577 647.4389380017149 674.5773118716642 0 1 0
48 1 1 0 651.3071717719996 658.1992285425683 651.0574812422374 0 0 0
343 1 1 0 674.5059286258366 650.4313957435611 677.0363479162276 0 0 0
344 1 1 0 673.6956012961627 648.7795652398939 670.4018572929064 0 0 0
345 1 1 0 671.6657978438833 650.4456974889891 671.5606220209818 0 0 0
1163 1 1 0 652.1593232105743 680.2885790271512 662.0175939076291 0 0 0
347 1 1 0 671.5135465524396 649.74200980448 670.3405732837903 0 0 0
348 1 1 0 664.2281199442672 671.7694465041367 651.8978935376382 0 0 0
349 1 1 0 673.8783248520393 653.9458495507934 674.5735754202614 0 0 0
266 1 1 0 678.8142769199455 660.0883921613025 677.417722102215 0 0 0
318 1 1 0 655.455872071235 667.9486388080243 677.3876566630871 0 0 0
1259 1 1 0 652.292955782385 648.6592889154242 670.4121933021995 0 1 0
353 1 1 0 669.8948629057599 650.780075738739 673.3053739443712 0 0 0
354 1 1 0 669.4564893168464 650.5332816475075 670.9099470097274 0 0 0
355 1 1 0 668.321588800649 649.1126850252089 672.350451383878 0 0 0
356 1 1 0 672.3907133099276 648.7716080754317 669.8830309506135 0 0 0
357 1 1 0 670.1334352342294 649.5864423273326 670.055991973413 0 0 0
358 1 1 0 678.6394910029429 649.032727638922 670.0218898295599 0 0 0
359 1 1 0 652.0407793040976 660.4918383572522 679.5345439855091 0 0 0
1437 1 1 0 647.9776247274434 648.9745301277618 661.1610029489622 0 1 0
1045 1 1 0 653.1699066187712 647.0247414018925 660.8932053093667 0 1 0
362 1 1 0 670.3945949093617 652.3000488729355 678.0654880861517 0 0 0
363 1 1 0 677.741429810444 649.6092062357851 670.9570715990807 0 0 0
484 1 1 0 647.7957683955763 657.943752032156 648.7097257440671 0 0 1
365 1 1 0 670.3955854785754 651.2308335046077 674.6203032690585 0 0 0
1154 1 1 0 662.4656175863478 647.3324920813898 679.6613902577109 0 1 0
3279 1 1 0 646.7732250102815 654.6414031345171 648.3723893010725 1 0 1
3777 1 1 0 647.8161310674567 648.2721207251842 674.8285299908716 1 1 0
172 1 1 0 647.0111482202575 652.5218675510956 658.2523511111137 0 0 0
352 1 1 0 649.8051525091115 680.1612985848452 658.4777770699744 0 0 0
1125 1 1 0 651.2227310732846 647.001551431353 669.5485806957652 0 1 0
2661 1 1 0 646.8331862314291 655.5388948829439 647.2730183431136 1 0 1
910 1 1 0 663.6428033785834 673.5823570133635 648.4058179320575 0 0 1
1203 1 1 0 665.0160610459217 649.9965546049857 679.6396847036128 0 1 0
955 1 1 0 646.6249377282137 661.9089172776147 647.3616558939327 0 0 1
1076 1 1 0 650.606154824554 647.0941762520044 677.0693285714246 0 1 0
943 1 1 0 646.7551702549933 663.3306174014957 647.0890035259345 0 0 1
858 1 1 0 649.1848007485136 659.3676690915917 647.4692268107434 0 0 1
1116 1 1 0 648.4843102663643 647.1984550606846 668.7680082173465 0 1 0
128 1 1 0 650.7784240594125 655.4583629083471 647.1548694653939 0 0 0
59 1 1 0 647.0610202948045 663.0279782180272 677.1706251309521 0 0 0
844 1 1 0 665.9319075500669 673.3463684543332 648.0752334622777 0 0 1
244 1 1 0 655.0129651087876 679.3031727668281 658.648226073604 0 0 0
781 1 1 0 662.6969128288778 676.9182938930289 647.5261462791262 0 0 1
1515 1 1 0 653.9416025002936 679.7564474479443 666.3095050469911 0 0 0
738 1 1 0 663.5118349707573 675.8390066458836 647.6276172616184 0 0 1
1484 1 1 0 653.1143796473965 679.9236045602195 658.5289448139182 0 0 0
17 1 1 0 646.7666861868154 666.184286217111 679.9417384857844 0 0 0
220 1 1 0 646.9575800054927 661.1253288004174 678.7254337566307 0 0 0
664 1 1 0 650.1332244737335 656.6031817723532 647.6680231312466 0 0 1
996 1 1 0 653.5632054721464 679.8493557881869 659.89356052351 0 0 0
3655 1 1 0 646.3848871683593 648.3699851674728 672.4603000253732 1 1 0
317 1 1 0 657.4367910578657 664.1171103275977 680.0028465372717 0 0 0
13 1 1 0 649.7660261016995 663.395430896242 680.2710040586634 0 0 0
884 1 1 0 648.9398823298178 656.8884627792506 646.9870260311053 0 0 1
457 1 1 0 667.4696856935439 657.7247451480189 710.2637957857137 0 0 0
458 1 1 0 670.0390225569321 656.2615021204615 686.0340854608062 0 0 0
459 1 1 0 670.3648160264448 657.6342827722012 686.2017440992036 0 0 0
460 1 1 0 671.6169399942493 657.947390275477 686.7321343010269 0 0 0
461 1 1 0 672.7952702808808 658.367892061179 686.0385594272018 0 0 0
462 1 1 0 673.7309941788047 659.2193676102916 686.8356379009683 0 0 0
463 1 1 0 675.1757044482958 659.0207563771698 686.3840062165586 0 0 0
464 1 1 0 670.7085511280796 655.2884226215224 686.9537803830004 0 0 0
465 1 1 0 671.9668516957029 655.7436465302964 687.6405290767982 0 0 0
466 1 1 0 673.3523707554959 655.9146212597174 685.5529739180306 0 0 0
467 1 1 0 673.2739203104824 655.5570046988701 686.9976530682485 0 0 0
468 1 1 0 673.6615809570501 657.3012465490641 685.5035777811629 0 0 0
469 1 1 0 674.9838188270943 657.5864662940987 685.9973284772485 0 0 0
470 1 1 0 672.0056292488122 657.2060374054527 687.9220807627419 0 0 0
471 1 1 0 673.1015481565181 657.7585101509175 688.6240705626102 0 0 0
472 1 1 0 674.4319030718908 656.0083218139114 687.7958884689881 0 0 0
473 1 1 0 674.2649108563548 656.9613285152292 688.9198028350139 0 0 0
474 1 1 0 675.5071478840839 656.5600943018381 686.8633902154127 0 0 0
475 1 1 0 676.6886356786706 656.8175182892828 687.4709505846067 0 0 0
476 1 1 0 673.4072776083428 659.1142855903278 688.2592169745402 0 0 0
477 1 1 0 674.0275939656633 659.8771038046696 689.2814511829577 0 0 0
478 1 1 0 675.5418566379617 657.6883030876868 689.5624194301474 0 0 0
479 1 1 0 675.2579260566173 659.3481899771165 689.756695080244 0 0 0
480 1 1 0 676.6754176116879 657.7409904479115 688.4720115383144 0 0 0
481 1 1 0 676.4446403091227 659.6335702625953 686.5113959788331 0 0 0
482 1 1 0 675.9829402647252 649.073802273934 708.202555001646 0 0 0
995 1 1 0 671.4964508394411 648.4399243924966 681.5653977418319 0 1 0
936 1 1 0 646.8840203689169 659.7108783081613 712.8528884702137 0 0 0
1873 1 1 0 679.22471885699 657.2427437950527 691.3095530171302 0 1 0
737 1 1 0 649.235164900654 665.6616860689068 712.6754249194175 0 0 0
230 1 1 0 671.3344385521543 665.1700952203745 687.5519446775702 0 0 0