LAMMPS data file via write_data, version 2 Aug 2023, timestep = 50000, units = metal

4560 atoms
1 atom types

640.1411110190473 724.0388889809486 xlo xhi
640.6433914050161 724.2456085949856 ylo yhi
639.5749213799666 725.3140786200352 zlo zhi

Masses

1 12.0107

Atoms # full

1312 1 1 0 674.8501702137444 658.0983236721381 673.3816884279576 0 0 0
2 1 1 0 651.1139784751572 681.514516662094 670.7594609379563 0 0 0
3 1 1 0 650.0380139135978 665.0839799558623 666.3841082382181 0 0 0
1341 1 1 0 669.7169148851146 657.4550871772354 677.0886300106182 0 0 0
5 1 1 0 648.4422060841666 662.6469249775676 669.307900378546 0 0 0
1902 1 1 0 654.6917184296913 678.9686659610358 669.4691179905388 0 0 0
2804 1 1 0 643.9823788929821 676.0122005600782 669.3398899165054 1 0 0
1622 1 1 0 669.6564344496455 642.9885398113364 660.6659228868193 0 1 0
1310 1 1 0 658.8529506385911 647.9483107289931 680.4454067997588 0 0 0
10 1 1 0 644.9204477633502 660.0371007547851 667.5326192272943 0 0 0
11 1 1 0 675.7802712816639 654.4279218176359 647.7518705346716 0 0 0
12 1 1 0 650.1637959995206 679.6910709533295 672.1326470389112 0 0 0
953 1 1 0 674.9026723061926 643.7723088810246 640.9573402030456 0 0 1
1371 1 1 0 675.381665283826 644.8824731145709 645.2864318734911 0 0 1
15 1 1 0 649.0705063052777 658.6669239352497 669.7453789501358 0 0 0
1252 1 1 0 673.2370119041906 661.1186145344285 673.0232993399865 0 0 0
17 1 1 0 648.0959154048306 653.4823653796977 674.7406935585004 0 0 0
1438 1 1 0 668.144781713494 658.3377354228971 674.2737165042469 0 0 0
19 1 1 0 646.9877446244045 665.4235874849738 661.1402340502166 0 0 0
20 1 1 0 643.6161098264072 665.0496646497692 661.0717214829189 0 0 0
21 1 1 0 652.2000658270292 680.9782265346561 668.6577507244712 0 0 0
1887 1 1 0 655.6965853808637 679.6547448992387 668.7600446045974 0 0 0
1871 1 1 0 655.4283033778153 680.0962798767356 667.4452211262098 0 0 0
1251 1 1 0 669.2084111529307 651.6166845895023 682.1313115029436 0 0 0
1528 1 1 0 650.6758006862041 682.2060397440139 640.5412154051966 0 0 0
1686 1 1 0 648.7930932724382 680.5847123884616 643.9936347491856 0 0 0
27 1 1 0 650.4934124221643 681.0886166552921 671.9662450753982 0 0 0
28 1 1 0 646.6005541051687 664.39823676635 666.1354035931677 0 0 0
2679 1 1 0 642.2142410824046 676.1047503854749 672.5047610531832 1 0 0
30 1 1 0 645.0669163321194 659.8415519236354 669.9153094327006 0 0 0
1578 1 1 0 671.922729286528 643.8606426689523 661.335745948394 0 1 0
32 1 1 0 646.2566542366092 665.3337453973085 658.0641831520555 0 0 0
1204 1 1 0 659.2990452993195 649.2671248400611 680.1655586407875 0 0 0
34 1 1 0 647.844934329744 661.8407200218486 670.3091480082129 0 0 0
35 1 1 0 678.8943066647327 655.73717730628 648.5167331034075 0 0 0
36 1 1 0 676.6985082046807 652.9542628474735 650.5259688406608 0 0 0
955 1 1 0 673.6772559230205 643.2908149648038 641.3845266425254 0 0 1
38 1 1 0 647.9991980331013 677.5962735231201 643.5107931207054 0 0 0
39 1 1 0 673.931849056017 651.2604598802678 646.2090448706571 0 0 0
1141 1 1 0 665.5580403145773 647.857896364981 677.9058139597374 0 0 0
41 1 1 0 649.0674953399906 653.4532998940101 672.0573852953045 0 0 0
384 1 1 0 681.1913551918935 648.7503820031217 644.048964811688 0 0 0
43 1 1 0 669.6014188032167 654.7298903541036 671.6175926158434 0 0 0
44 1 1 0 641.7541972873767 663.7396758713555 659.5912905348157 0 0 0
1417 1 1 0 669.8231327040152 653.2325913936519 675.3098983222553 0 0 0
2683 1 1 0 640.628869231728 675.6057814510546 669.5457629273006 1 0 0
47 1 1 0 676.1044461264829 651.984913784254 645.6244233242181 0 0 0
655 1 1 0 673.0052936901002 648.7761272573024 645.6722274706672 0 0 1
49 1 1 0 677.4462628140168 655.7995476791142 654.0763907262565 0 0 0
557 1 1 0 680.525386127411 650.055500421699 643.6188366628094 0 0 0
993 1 1 0 671.4813654068533 658.2841914003143 674.6202730698303 0 0 0
52 1 1 0 654.5135472881435 682.23120174774 672.6460206279064 0 0 0
53 1 1 0 652.3814002772597 678.3359955379233 669.6766492113042 0 0 0
54 1 1 0 674.7879033076587 657.4241218731767 671.0530480474305 0 0 0
1225 1 1 0 668.181257241539 655.5960990907687 678.0276774512863 0 0 0
56 1 1 0 681.5983522733051 654.878593980329 648.0389840367151 0 0 0
57 1 1 0 680.3617582620906 656.6561661752628 653.1100724077847 0 0 0
58 1 1 0 681.5594406212559 655.8103084255856 653.0924068377523 0 0 0
1431 1 1 0 676.4042360300556 649.5057329503229 641.666287068293 0 0 1
1301 1 1 0 671.5673379616493 655.6032500826922 675.5790180977284 0 0 0
61 1 1 0 678.3614914019183 651.3717067058227 644.6441537664807 0 0 0
62 1 1 0 674.5834867332935 658.2875255307368 669.9242016717321 0 0 0
63 1 1 0 646.2988540108139 656.8042068486862 673.143528104004 0 0 0
1103 1 1 0 678.2940012513902 642.8887091883125 641.161302833991 0 0 1
65 1 1 0 648.5861704494188 655.8713644590385 674.1613625731416 0 0 0
1045 1 1 0 664.6903865218165 653.3118322455792 680.5851126351828 0 0 0
1197 1 1 0 677.1084984920127 642.3682711384574 641.9250846202865 0 0 1
45 1 1 0 645.9244996546886 651.2540917660546 674.9608074926754 0 0 0
69 1 1 0 668.5375539005107 652.1878813932267 672.6816567120496 0 0 0
70 1 1 0 680.5467075379605 654.7581485332641 646.9694989737782 0 0 0
71 1 1 0 648.4519213553004 652.2019847246767 672.1520550399421 0 0 0
1411 1 1 0 675.2860785656925 649.384535100082 642.7992470898574 0 0 1
42 1 1 0 645.5057628212212 671.317794410386 639.8181811656618 0 0 0
1522 1 1 0 653.2097974481737 681.872587002385 646.1132846945494 0 0 0
2598 1 1 0 641.0002397206158 675.3079918972152 672.8334028472161 1 0 0
1213 1 1 0 669.1491117362384 650.3533314754019 679.6264029475157 0 0 0
77 1 1 0 676.8940447832885 657.0888128366571 654.3470954307427 0 0 0
78 1 1 0 675.6664534360143 659.1222579604064 669.472081502708 0 0 0
79 1 1 0 677.7411151584276 657.8522030057503 655.2179298120072 0 0 0
80 1 1 0 679.2401799350664 659.7848441791841 655.6539195284149 0 0 0
81 1 1 0 679.8176576939098 659.1226812948898 656.839627578199 0 0 0
927 1 1 0 676.840927501029 647.9576845697812 639.6595125349407 0 0 1
83 1 1 0 681.1766942567244 659.4444195434303 657.2331174116532 0 0 0
1539 1 1 0 650.0226745293658 680.9427582969853 644.9506659162269 0 0 0
915 1 1 0 666.6733222522989 646.9766477985015 679.8548285575257 0 0 0
86 1 1 0 678.6954863075512 655.026571599956 654.486587089129 0 0 0
87 1 1 0 679.0655291921108 657.3698132527055 655.3618598827356 0 0 0
88 1 1 0 679.9772578031644 657.3490485925017 654.2097560908793 0 0 0
89 1 1 0 679.7759311710662 657.6251336337948 656.6125253187613 0 0 0
90 1 1 0 680.6286112015929 656.5358031970136 656.9559948309428 0 0 0
3206 1 1 0 642.047827745136 646.3762804125813 651.6004408057555 1 1 0
1903 1 1 0 653.0732028887986 681.8512225744315 640.8878596576919 0 0 0
2735 1 1 0 643.6905491063486 674.3291499765226 671.7384381811069 1 0 0
128 1 1 0 649.0838018724348 678.2927670248038 642.8071008715694 0 0 0
378 1 1 0 646.7335650400786 650.6259928600032 671.9664113304327 0 0 0
1366 1 1 0 678.2737255547605 647.8660152760519 643.3947835367773 0 0 1
1590 1 1 0 657.5467662995056 681.2270406887101 668.8197028177374 0 0 0
98 1 1 0 642.9111116307728 662.9266914635147 659.8510004846761 0 0 0
2807 1 1 0 642.3393135259897 673.608397528319 667.2269078786709 1 0 0
1365 1 1 0 661.9627708366742 646.365460578596 679.3626541356174 0 0 0
101 1 1 0 678.0840620862784 656.9191825058488 648.26658235699 0 0 0
102 1 1 0 644.5981375095687 663.5196097352638 662.8562575647599 0 0 0
103 1 1 0 651.2746936136502 679.1534948099171 670.0435750431484 0 0 0
1210 1 1 0 672.4974719126922 646.51578569799 646.4655373808288 0 0 1
105 1 1 0 675.3455530173086 649.8457822800492 648.9664589815594 0 0 0
106 1 1 0 646.2057950355609 675.735529529401 643.122488291702 0 0 0
107 1 1 0 680.243513016238 660.3370262455231 654.7217205601307 0 0 0
108 1 1 0 648.9136068197195 657.2526366435443 674.2440915382566 0 0 0
109 1 1 0 643.1948524532324 665.2656924242385 658.5046458040547 0 0 0
110 1 1 0 646.4369496332517 661.6906698225691 670.2331922997129 0 0 0
1121 1 1 0 678.8241515851731 646.3817539295317 641.7267456397935 0 0 1
112 1 1 0 647.7134485709768 667.3085367642342 662.5718184785818 0 0 0
1242 1 1 0 667.6892877555032 647.9073030738498 679.707166316591 0 0 0
114 1 1 0 641.9127492202801 665.0715540958386 659.12918178755 0 0 0
115 1 1 0 645.002827763377 668.6057702389807 658.5543780261615 0 0 0
116 1 1 0 645.0829334008241 664.0015058870795 664.2437889696645 0 0 0
117 1 1 0 645.8703060221613 660.5514744421405 670.9040976772659 0 0 0
72 1 1 0 647.9404438319326 678.258220214675 644.808619410399 0 0 0
546 1 1 0 644.1789910002825 673.4423997625177 640.9394031992521 0 0 0
120 1 1 0 648.1172462971233 656.7122379869368 670.8188669107908 0 0 0
121 1 1 0 668.2855798433696 656.9659758223594 672.3083476253345 0 0 0
122 1 1 0 677.3326563720766 652.8162719010858 651.7586417378245 0 0 0
123 1 1 0 664.4620848632665 649.2191556537772 676.2776518745511 0 0 0
124 1 1 0 679.7689441341521 653.0272977207086 651.1948971169365 0 0 0
125 1 1 0 648.8859035978517 677.7769619084343 645.7687565885936 0 0 0
126 1 1 0 651.403145990745 680.5642167812803 669.7569136051184 0 0 0
127 1 1 0 648.3123697315358 658.325387811963 668.5864193942691 0 0 0
1215 1 1 0 674.4535286108062 647.1190984744986 642.41980706234 0 0 1
129 1 1 0 645.520170274154 662.9203264789845 662.0211593288733 0 0 0
166 1 1 0 647.4697481841065 674.5886060117479 640.377333708412 0 0 0
1425 1 1 0 668.6866092042708 659.4794009722333 673.6206257316015 0 0 0
132 1 1 0 672.5892717747034 657.0723355421653 666.3320142571854 0 0 0
1423 1 1 0 678.8910854936864 644.3798233266564 644.9453661773748 0 0 1
134 1 1 0 647.3683371036456 656.4134903658002 669.6864215237936 0 0 0
135 1 1 0 648.1631538561279 666.3164790636439 661.6201863849 0 0 0
568 1 1 0 677.7551588246672 650.1743974609223 642.4077629202268 0 0 0
946 1 1 0 672.1132482719182 646.9026960107986 640.4424419222545 0 0 1
328 1 1 0 646.4969072875456 672.2056028679274 640.3562159652731 0 0 0
139 1 1 0 678.1056740593909 654.0459016443313 645.5996917441008 0 0 0
140 1 1 0 645.1194762385999 658.4185594703832 669.65839316587 0 0 0
141 1 1 0 645.4603390148798 667.6912070833704 657.5961581083287 0 0 0
142 1 1 0 645.8972617106695 659.0062039888971 667.4697274542674 0 0 0
1848 1 1 0 651.5177365595953 680.2027877942961 646.9906391992085 0 0 0
144 1 1 0 644.8598311196904 656.1862958969722 671.1019417581338 0 0 0
145 1 1 0 648.1984216068892 658.2140108272711 673.4389723993432 0 0 0
2717 1 1 0 642.689323009293 673.7636074967569 670.7995421106475 1 0 0
1429 1 1 0 664.3776241146469 646.3578054371834 679.3444428144528 0 0 0
148 1 1 0 649.3353646321699 660.1889313836175 667.4344839297725 0 0 0
1472 1 1 0 667.69879290672 654.0619895075823 674.3399933962098 0 0 0
150 1 1 0 648.8055181007322 657.9673642090802 670.9459234738065 0 0 0
151 1 1 0 647.2908535220821 664.7671143916722 662.5317028428991 0 0 0
152 1 1 0 669.5880428534523 659.9471628427298 671.4350947429165 0 0 0
1878 1 1 0 653.3933515579669 678.9291401530514 668.8915186542608 0 0 0
154 1 1 0 649.7586411385295 660.7657901665794 668.6468712357787 0 0 0
156 1 1 0 681.0202296750754 648.7034538242227 645.5402351680915 0 0 0
1529 1 1 0 656.110107976531 681.4661190145209 665.596217826388 0 0 0
157 1 1 0 675.0911145510422 661.3776627475819 668.6727245520858 0 0 0
1112 1 1 0 672.8080411247896 658.0780104041929 675.423946385295 0 0 0
159 1 1 0 668.9914682291021 653.6192661781065 672.3007344161057 0 0 0
160 1 1 0 653.8464374525159 678.1425843242072 671.5340746011069 0 0 0
161 1 1 0 671.4274790236537 657.4992003527229 670.9959130084269 0 0 0
1672 1 1 0 670.9154836163344 641.8879340253962 658.3921143927536 0 1 0
163 1 1 0 679.4682952259944 653.4221557441917 645.3081815888515 0 0 0
1445 1 1 0 672.6160198613584 655.272505683163 673.4434837080995 0 0 0
165 1 1 0 680.8695737566989 651.1412078292016 649.6654259378325 0 0 0
1074 1 1 0 672.341471508713 647.0293388409012 643.9177671343496 0 0 1
167 1 1 0 643.1683451907198 666.3929810256235 661.3712975260054 0 0 0
168 1 1 0 653.2755947458306 679.8923691159639 673.1218473571698 0 0 0
1181 1 1 0 671.0729444545478 657.5452417505306 673.5122319174457 0 0 0
170 1 1 0 650.1163432376219 675.402496797023 643.5449337062552 0 0 0
171 1 1 0 642.4342631775052 666.8138046620334 655.1755092145063 0 0 0
172 1 1 0 641.0659668547977 667.5149307789891 655.0185890458375 0 0 0
173 1 1 0 643.5693127984985 667.6456300482336 655.5897704623418 0 0 0
174 1 1 0 643.361912997647 669.0870287055585 655.6581293859368 0 0 0
175 1 1 0 641.1808771597249 668.8827533381699 654.5980952674311 0 0 0
2720 1 1 0 640.5598064337639 677.0733050622489 667.570021464547 1 0 0
177 1 1 0 642.0023828791566 669.5618319671354 655.5265365124037 0 0 0
178 1 1 0 641.438370597153 669.8769448778472 656.7919931066175 0 0 0
179 1 1 0 641.4210921700055 666.3005173787415 659.6990061105073 0 0 0
180 1 1 0 642.3836084917444 667.123506701758 660.3982003150606 0 0 0
181 1 1 0 640.5170537313277 666.9902888812425 658.8623175645458 0 0 0
182 1 1 0 640.8317893242979 667.7018972495639 657.716072361429 0 0 0
183 1 1 0 679.4546814518878 658.2901932847875 649.2851158147174 0 0 0
2801 1 1 0 646.5516042840804 650.1091882938223 674.4047420515147 1 0 0
185 1 1 0 674.1074879844109 658.1051793800851 651.6817912014277 0 0 0
186 1 1 0 645.337108593285 653.693849685677 671.0346673769474 0 0 0
1035 1 1 0 668.0232120265478 654.3410347837109 680.045380586192 0 0 0
188 1 1 0 651.9765918530069 676.660975628937 671.4420751163825 0 0 0
189 1 1 0 643.5519254005709 664.2581511049484 662.2723350826071 0 0 0
190 1 1 0 644.231281829996 663.4654823959755 660.0426048334197 0 0 0
279 1 1 0 651.9498333309973 677.4757205952446 643.3184445525369 0 0 0
1134 1 1 0 677.1571760683829 644.8657784964215 641.3414488983688 0 0 1
1772 1 1 0 668.8555637758723 640.9227633927431 657.73131923468 0 1 0
1130 1 1 0 678.9063905709448 646.8918397548225 647.7149708163329 0 0 1
195 1 1 0 647.0730091542863 676.845632536296 642.7829282225972 0 0 0
196 1 1 0 645.2548263174078 672.9031840856928 643.115107180294 0 0 0
197 1 1 0 651.2135135854847 681.4629642486361 673.193479955881 0 0 0
1447 1 1 0 662.0779174575845 648.7042690747761 677.7326915987861 0 0 0
199 1 1 0 674.3509540557304 659.3900982633704 667.529059720542 0 0 0
200 1 1 0 647.2019302817305 657.4900407612503 668.7812447523124 0 0 0
1340 1 1 0 680.7747074823938 646.2288875633416 641.1500109944907 0 0 1
202 1 1 0 648.0290285937998 660.0203983052803 671.8464024472938 0 0 0
1912 1 1 0 649.1539157409435 679.8969570637785 639.917174079205 0 0 0
1118 1 1 0 678.4111664738119 645.4293186951464 639.6088000462973 0 0 1
205 1 1 0 678.6575542695549 650.9288389853673 650.5436524567104 0 0 0
206 1 1 0 647.2096738070564 665.1896874585118 663.8794721780857 0 0 0
207 1 1 0 676.966873742241 653.2872293346826 645.7775691896472 0 0 0
208 1 1 0 675.9768116861608 657.9694316382233 653.4962635712316 0 0 0
3338 1 1 0 642.0364259819678 649.2839371141696 651.9581900597569 1 1 0
1059 1 1 0 674.5271677565809 659.3312508437591 674.0002762020201 0 0 0
211 1 1 0 676.7901461799224 653.3548940315228 647.2997679653301 0 0 0
1588 1 1 0 648.2225236427205 681.6740939684386 642.9240889902719 0 0 0
213 1 1 0 646.4090147396012 662.7717965367281 667.945427689599 0 0 0
214 1 1 0 675.0203382348499 658.7341384085536 650.8534183340864 0 0 0
215 1 1 0 650.4407234164569 676.1900691193138 644.6550388974151 0 0 0
216 1 1 0 673.2867926007423 658.5092369936374 669.5101452567278 0 0 0
217 1 1 0 674.1700218049964 656.1089752164938 667.8200049187438 0 0 0
2599 1 1 0 640.5122865342985 674.154787568394 672.0739103227905 1 0 0
1297 1 1 0 661.9631253024298 645.2926703352592 680.2693986102072 0 0 0
220 1 1 0 674.2899505609844 650.5733757852172 642.5801222569352 0 0 0
221 1 1 0 678.6656752435438 652.083587866051 651.452488102185 0 0 0
184 1 1 0 650.4576758910947 675.7935233421894 642.1979447425122 0 0 0
223 1 1 0 650.051587259302 662.9608249068386 667.5564642037968 0 0 0
224 1 1 0 643.9632962923325 669.45359858481 658.0302542401449 0 0 0
225 1 1 0 644.091791312908 669.7793747140762 656.6648949449284 0 0 0
226 1 1 0 642.7433061802212 669.0547242386131 658.7108151996434 0 0 0
227 1 1 0 641.5665933466529 668.9762460842792 657.8629110372641 0 0 0
228 1 1 0 650.0883512566793 662.2418684138462 666.3098377331594 0 0 0
229 1 1 0 673.9436142558833 656.9981853607885 666.7309810134333 0 0 0
230 1 1 0 645.1453995799546 667.5310903949804 662.1527864120053 0 0 0
231 1 1 0 651.3998996755586 678.0931354725946 645.740625126382 0 0 0
569 1 1 0 679.4643570094157 650.1478622345262 642.4560025963985 0 0 0
2708 1 1 0 643.4728823675832 675.6955399395947 671.9147624400705 1 0 0
234 1 1 0 647.1078286101005 659.378932712501 666.8434512219735 0 0 0
886 1 1 0 680.7185594329258 645.0252542978687 643.300597039534 0 0 1
236 1 1 0 645.4190130822392 667.4105774484219 660.7614143451075 0 0 0
237 1 1 0 646.0224052059648 666.2175472892484 660.3498384183144 0 0 0
238 1 1 0 644.6226240249796 668.1438852431758 659.8535725503193 0 0 0
239 1 1 0 643.1402758714529 668.2050916773629 659.8247221908447 0 0 0
240 1 1 0 642.1239606385666 665.9800748130777 656.4734547343406 0 0 0
241 1 1 0 640.9657591301785 667.0161407233946 656.4889941473291 0 0 0
242 1 1 0 643.2934420755023 665.8064320612726 657.2825859653789 0 0 0
243 1 1 0 644.3687372034185 666.7920964387954 656.7074934262442 0 0 0
244 1 1 0 648.3566048457658 659.1601161686302 667.4889009171651 0 0 0
245 1 1 0 645.1433436511699 656.1674507674113 672.5108535955505 0 0 0
246 1 1 0 673.9052779845414 656.310873211765 671.2681809337096 0 0 0
1457 1 1 0 677.3743050811781 660.6920338332708 670.3595919116498 0 0 0
248 1 1 0 679.381987009712 649.1932546702797 649.0547508250538 0 0 0
249 1 1 0 649.6520508572133 662.1897970475018 668.6898686009285 0 0 0
250 1 1 0 676.8757773910583 649.676680981277 649.3080616670046 0 0 0
251 1 1 0 645.9742893782726 658.1191402885373 668.5745920793642 0 0 0
252 1 1 0 676.4350675922619 650.751865629489 646.5995518277084 0 0 0
253 1 1 0 646.6320470365376 664.1026266062399 660.2275245253818 0 0 0
254 1 1 0 674.5061197627756 656.0113120940081 652.4841491121914 0 0 0
951 1 1 0 675.7145918352475 647.0882038565964 641.4329154831674 0 0 1
256 1 1 0 678.0645143980596 655.1010943703398 646.5196847016348 0 0 0
1315 1 1 0 676.9433849792434 645.2857665256848 646.9823949822919 0 0 1
2642 1 1 0 647.344928850119 650.4487837567704 673.2714216977661 1 0 0
1373 1 1 0 675.9216121296956 645.8291681387142 647.725792899334 0 0 1
1372 1 1 0 670.6466314073992 660.6919240446977 672.0113889340666 0 0 0
261 1 1 0 676.3379116877527 656.1671834315194 651.1957785279507 0 0 0
262 1 1 0 673.3381684607816 654.3483463771151 650.6368494329021 0 0 0
263 1 1 0 644.5955471874768 657.3371766200098 670.3504382433167 0 0 0
264 1 1 0 665.6935151557464 649.5229452085769 675.6708503428085 0 0 0
265 1 1 0 677.8940038940043 651.0596625481247 647.1481096160517 0 0 0
1432 1 1 0 680.3726877753785 646.2662999195978 645.4052987792974 0 0 1
1175 1 1 0 666.631725779113 654.4947131227457 679.9566601340074 0 0 0
268 1 1 0 673.0369658217787 659.4365285652433 668.3069825715586 0 0 0
1380 1 1 0 660.9301940920586 648.4089749898056 678.5141467648289 0 0 0
270 1 1 0 645.9427462643359 666.2952848276387 657.1286019064336 0 0 0
668 1 1 0 668.7816080525882 654.6948662207019 678.9329556591226 0 0 0
941 1 1 0 670.9611185856595 648.4859088893943 641.871895243776 0 0 1
273 1 1 0 680.6681982536248 653.6163365282675 646.1165540516049 0 0 0
274 1 1 0 653.4101906831401 679.5492471519999 645.6506577838672 0 0 0
275 1 1 0 671.7950621075056 658.9736608214722 667.5669668496696 0 0 0
276 1 1 0 649.0201525619381 674.4604575504999 643.5651100199516 0 0 0
277 1 1 0 643.6749404148782 666.1014346531347 663.655928861854 0 0 0
278 1 1 0 681.3473381066353 649.8657956886135 646.2906501563257 0 0 0
1060 1 1 0 665.5683728035451 647.0017835680799 679.0105547551346 0 0 0
280 1 1 0 652.6018656349888 682.3393211392747 668.5600062218497 0 0 0
281 1 1 0 645.4760402933232 665.5401003851629 659.3065756102861 0 0 0
282 1 1 0 644.1997682295063 664.9139705143549 659.5449451835644 0 0 0
283 1 1 0 646.9066167724023 664.2180980895686 658.8589401339253 0 0 0
284 1 1 0 649.3763216102788 665.6021317275391 661.8158508824762 0 0 0
656 1 1 0 665.8395669224311 654.0096388316548 681.0112055763528 0 0 0
338 1 1 0 649.4429800015275 675.607268993303 641.2482679750104 0 0 0
287 1 1 0 677.5357809964512 659.8673466410191 653.7407690336499 0 0 0
1153 1 1 0 674.9081931859977 646.9279171686476 643.9145699374712 0 0 1
289 1 1 0 655.0837314055304 680.2021509400115 671.4643740133147 0 0 0
1095 1 1 0 663.6003342051031 652.5658299344378 676.8075616776314 0 0 0
291 1 1 0 680.955131162699 652.3852648154302 650.3929823664694 0 0 0
2613 1 1 0 642.3161053875612 672.893254907377 668.5248817136535 1 0 0
293 1 1 0 677.5172278852068 652.2696562872358 647.9493491079556 0 0 0
1211 1 1 0 681.0194589571041 646.1787158074393 644.1426448275004 0 0 1
295 1 1 0 648.6434639135846 660.7551122465331 670.7948821558732 0 0 0
296 1 1 0 677.1919360423542 651.0547906820028 643.7523549217738 0 0 0
917 1 1 0 673.751727564909 659.3045647179047 675.1299380996641 0 0 0
298 1 1 0 648.123586696412 655.6959460915141 671.7954227036363 0 0 0
299 1 1 0 671.8005523223826 655.2171320131475 670.5388803360569 0 0 0
1334 1 1 0 661.77370744673 651.1201013184324 677.7806858527176 0 0 0
301 1 1 0 678.6010741992031 659.7298747768882 651.2741803089195 0 0 0
302 1 1 0 645.4834146622854 663.2597198712301 660.6435684646985 0 0 0
1473 1 1 0 671.8489187634873 657.3512154296236 672.3158516011378 0 0 0
304 1 1 0 645.780852076705 662.6853141873453 665.0850266519483 0 0 0
305 1 1 0 681.8476885459527 652.2772178465194 647.8539047478424 0 0 0
306 1 1 0 681.0479101619007 649.9351952496155 647.6657334874168 0 0 0
307 1 1 0 673.4880967310579 655.6592145681198 651.1856718676308 0 0 0
1461 1 1 0 663.1688597466441 646.7658001991387 678.7689023482883 0 0 0
309 1 1 0 675.7758277294431 657.1176025826628 648.7821099354757 0 0 0
1342 1 1 0 665.5375513884801 653.8907590850372 676.024207278204 0 0 0
311 1 1 0 680.488402318502 657.4068584450976 650.8111118928125 0 0 0
312 1 1 0 649.0179986971547 654.5148543091218 674.3047245583524 0 0 0
1322 1 1 0 679.3226666598594 645.3960018426401 645.7568519615069 0 0 1
314 1 1 0 678.0833768342934 659.3640016082113 655.0143151239338 0 0 0
1362 1 1 0 668.7357886405252 650.4681582725726 677.2643702947107 0 0 0
316 1 1 0 677.5019010096092 650.8485829387388 649.8507579718477 0 0 0
388 1 1 0 647.1955512720177 677.1488729749555 641.2960858367479 0 0 0
3829 1 1 0 640.9500587850988 641.3978012472948 651.8969730509646 1 1 0
1113 1 1 0 670.8398370134961 660.6451306122535 673.4208172055118 0 0 0
320 1 1 0 680.1816026608138 656.9097452859614 649.4532476285619 0 0 0
1426 1 1 0 676.5360418979101 661.8610850815392 670.3984691052626 0 0 0
1398 1 1 0 669.9646734953012 656.7944255597462 673.9026994548688 0 0 0
323 1 1 0 646.9896588463472 660.4740684170359 665.934459369155 0 0 0
2729 1 1 0 640.8216026332284 677.0579413192278 669.080910078209 1 0 0
325 1 1 0 677.3202407952336 658.052161514083 650.2161450924505 0 0 0
326 1 1 0 681.0925350831435 655.4796277530363 656.0399512222364 0 0 0
1547 1 1 0 670.9678215206497 642.1526456789146 662.6631457387433 0 1 0
1463 1 1 0 667.9935636103945 649.9337686833431 676.198281055161 0 0 0
329 1 1 0 674.1335971360359 653.2805492849407 650.1697280786391 0 0 0
1384 1 1 0 674.920132426018 646.1558245053051 646.8393850009082 0 0 1
1217 1 1 0 669.4685864032663 651.7375762820745 679.6128121382771 0 0 0
332 1 1 0 648.4348988578025 651.4494996060138 673.3931419071772 0 0 0
333 1 1 0 647.6125247671736 663.3887544837311 668.464803823059 0 0 0
1338 1 1 0 668.075909522256 658.4686774890913 675.6825362003227 0 0 0
1906 1 1 0 656.5605942413503 680.4822551903178 669.4930757292088 0 0 0
336 1 1 0 678.1544668437267 657.9873871086781 649.0061606887389 0 0 0
1418 1 1 0 668.6267466720212 657.1263323884582 673.6537287897946 0 0 0
940 1 1 0 672.4557281438348 648.7737864121682 642.1086950430863 0 0 1
339 1 1 0 670.6564833468881 659.7409857602366 667.853772930865 0 0 0
1870 1 1 0 653.3345806454887 680.9797064964055 642.1254960601947 0 0 0
1405 1 1 0 676.6097850835721 647.4160715811194 645.1860663539834 0 0 1
342 1 1 0 652.6335953939397 676.0978754679967 672.7182849331238 0 0 0
343 1 1 0 650.4189519279813 678.6977623889528 671.1083377593235 0 0 0
344 1 1 0 646.665656211114 655.13142202562 669.756635483399 0 0 0
1476 1 1 0 647.6356843420199 679.594664087554 644.3817173064599 0 0 0
346 1 1 0 678.7946375541743 654.4391449714842 653.1680001359728 0 0 0
347 1 1 0 681.5014168820992 652.4473180405506 646.4611048585557 0 0 0
1856 1 1 0 653.6570737269079 680.9354288919114 645.1969423706174 0 0 0
349 1 1 0 673.2134885903781 655.5660287083743 670.270353643954 0 0 0
350 1 1 0 649.3468117745059 661.0459124225097 666.3011354553964 0 0 0
351 1 1 0 644.8241934188243 653.6981012641351 672.3846939652512 0 0 0
595 1 1 0 641.4403218547083 667.1332195737319 640.1085044900741 0 0 0
247 1 1 0 664.3938124592432 648.205956933426 677.2449160545539 0 0 0
354 1 1 0 644.9452016808633 660.713335996862 668.7616230767935 0 0 0
355 1 1 0 678.6342588460138 655.0905106773877 651.8186801234583 0 0 0
356 1 1 0 650.3027270852365 665.2025124837917 664.0331359715836 0 0 0
357 1 1 0 669.5852006775743 651.3552677260689 673.2688660991927 0 0 0
358 1 1 0 648.435994042577 675.3907503875081 645.7110901749392 0 0 0
1858 1 1 0 654.8760115971451 682.1737665578266 665.6703662353353 0 0 0
360 1 1 0 652.5364704269103 677.4589570654066 673.3982908671314 0 0 0
564 1 1 0 651.369959561188 676.8389823475444 642.1326647793402 0 0 0
1585 1 1 0 651.5352370543219 680.6042153259775 644.4485056084244 0 0 0
363 1 1 0 646.449112508889 664.5465331979088 664.7975857147396 0 0 0
3889 1 1 0 641.3033632122365 647.2630692022749 650.6730689576347 1 1 0
365 1 1 0 677.88872578245 649.4515432906799 645.1187378274979 0 0 0
366 1 1 0 646.5572715359576 652.9029309527026 670.7534630769667 0 0 0
1470 1 1 0 676.1258122465492 662.246020350481 669.1143087552931 0 0 0
368 1 1 0 651.41341016458 677.2256155288316 644.6166406648657 0 0 0
369 1 1 0 674.2716874143634 650.878420076198 648.5166947611605 0 0 0
1293 1 1 0 669.8652414295033 653.9057702797118 678.4327544032321 0 0 0
371 1 1 0 647.2728964927464 651.8230092851803 671.3764118069308 0 0 0
372 1 1 0 650.495006875013 664.3493771170878 665.1775522982878 0 0 0
1420 1 1 0 666.7522719069068 648.492138365753 677.5783660439986 0 0 0
1515 1 1 0 650.1760932279205 679.9898801287026 646.2765071643032 0 0 0
375 1 1 0 645.7471610387721 652.5167457977489 674.3141013896706 0 0 0
376 1 1 0 665.7875367423727 650.5649318508105 674.7233459705456 0 0 0
377 1 1 0 653.4424478933923 678.4616172629128 672.8604114085413 0 0 0
1177 1 1 0 666.0527277291658 654.6769296407975 678.6635583178278 0 0 0
379 1 1 0 651.9415658355027 680.2453125232919 673.6396731091933 0 0 0
380 1 1 0 650.8665519279824 679.2492321549945 673.3689018474861 0 0 0
610 1 1 0 669.9346906105897 654.2621380278674 676.180885254774 0 0 0
382 1 1 0 664.9976862228862 651.7089234615254 675.0201893410531 0 0 0
383 1 1 0 651.1444085720271 677.8581762152355 673.2420455705522 0 0 0
968 1 1 0 673.301230396877 649.0642687006243 647.0233844670777 0 0 1
385 1 1 0 644.8618671462559 652.5122945720818 673.1932098293585 0 0 0
386 1 1 0 676.1358604656604 659.3777552846528 651.7670090557879 0 0 0
387 1 1 0 646.4088987716435 654.7830879491323 673.7851060061482 0 0 0
1010 1 1 0 675.4778381650216 649.9715831400099 640.4721911293951 0 0 1
389 1 1 0 678.5575938476725 656.4005759917901 651.592597530904 0 0 0
390 1 1 0 679.5239055414843 655.4753895421893 649.7434547497606 0 0 0
1127 1 1 0 679.3994755193524 642.7858246135943 643.174094770234 0 0 1
1324 1 1 0 669.5048885836864 651.6543253883488 677.1142733978334 0 0 0
1487 1 1 0 653.9192441871321 681.7619454698212 666.6154228545607 0 0 0
394 1 1 0 646.7446593261232 658.0795919105284 673.462638850846 0 0 0
3193 1 1 0 642.6990594543709 647.0010996066762 652.7330525006823 1 1 0
396 1 1 0 646.6303644117096 660.0492463286072 672.014066436073 0 0 0
659 1 1 0 664.822018798153 654.0393872329681 678.3141309888229 0 0 0
398 1 1 0 678.3209046883486 650.5721659237283 645.8957619916908 0 0 0
399 1 1 0 646.723925491226 653.587988071826 674.4401553523263 0 0 0
400 1 1 0 674.6018519311299 658.2545081493068 666.7498997043547 0 0 0
3235 1 1 0 641.1580515108732 649.8532010633161 652.976880854807 1 1 0
402 1 1 0 646.1311138549197 659.2993255124375 673.0848308508013 0 0 0
403 1 1 0 644.2382006163206 651.3894430731351 672.727509425885 0 0 0
404 1 1 0 648.0225741451312 674.7331840030233 644.5135154753449 0 0 0
2604 1 1 0 641.7269256527467 677.3422581912381 671.7968366798863 1 0 0
427 1 1 0 642.77348151535 669.1162577153352 641.4765808242112 0 0 0
407 1 1 0 680.1747775944298 653.8963028351533 652.3887177870565 0 0 0
408 1 1 0 681.1003971660921 659.8721774875123 652.515683253523 0 0 0
409 1 1 0 675.5963747955523 654.6724399249385 649.2750511773138 0 0 0
410 1 1 0 681.4139081749305 651.3433038333116 645.6659715985381 0 0 0
613 1 1 0 675.522672145163 660.604016973715 672.2700020921064 0 0 0
412 1 1 0 654.7406560497725 678.9720692292351 670.8833593275676 0 0 0
413 1 1 0 676.6867754953911 655.0628361316726 653.1829821995989 0 0 0
414 1 1 0 672.2156306952286 657.7122811949773 669.8635328199999 0 0 0
415 1 1 0 647.839461180717 663.468236185366 662.3612351271142 0 0 0
416 1 1 0 649.7723435057436 666.478891977985 664.531949505091 0 0 0
417 1 1 0 649.5506059268674 664.2900701240658 667.4798979833698 0 0 0
926 1 1 0 676.4723796474718 648.2701306350402 640.9797433819137 0 0 1
419 1 1 0 672.7763655643683 660.8022871076213 668.9939148486412 0 0 0
420 1 1 0 654.2348157071771 680.7936216064002 672.4915337987062 0 0 0
421 1 1 0 645.8454914926605 661.2095025195997 665.6888501534071 0 0 0
422 1 1 0 674.2608321880851 652.3688892271483 648.8965238021638 0 0 0
423 1 1 0 656.4404787191355 682.1813203346337 671.2186457029028 0 0 0
1028 1 1 0 677.799702048299 647.3315133460987 648.51584349267 0 0 1
425 1 1 0 679.7617751614519 654.82491552688 655.3928461127965 0 0 0
426 1 1 0 646.4891472863308 673.4176936681407 643.4964492666567 0 0 0