LAMMPS data file via write_data, version 2 Aug 2023, timestep = 50000, units = metal

14672 atoms
1 atom types

630.7709891173661 733.4090108826281 xlo xhi
630.9576045699504 733.9313954300595 ylo yhi
630.8595785787327 734.0294214212772 zlo zhi

Masses

1 12.0107

Atoms # full

1 1 1 0 659.7124040675574 645.9969784270653 655.9589925154856 0 0 0
2 1 1 0 660.3843775386418 643.564145161959 655.4783304799632 0 0 0
3 1 1 0 660.0976894964765 642.2046064650953 655.0904092954969 0 0 0
4 1 1 0 659.8551578907205 644.9313344801708 657.1592910257546 0 0 0
5 1 1 0 659.4248230416508 645.1063927679362 658.4185492668074 0 0 0
6 1 1 0 660.5134430736239 643.7564981183598 656.8054764972529 0 0 0
7 1 1 0 661.1269120511315 642.828195516616 657.7612952076045 0 0 0
8 1 1 0 642.4234536443782 651.4504142308765 645.3735040199425 0 0 0
9 1 1 0 643.1127290105696 650.8236686243351 644.0195180134141 0 0 0
10 1 1 0 642.560618699587 651.669498991233 642.8529733758546 0 0 0
11 1 1 0 645.3047289208585 651.2045230785061 642.5427980986359 0 0 0
12 1 1 0 642.932773733306 651.1969889918695 641.3373184113696 0 0 0
13 1 1 0 644.5015708622599 651.4698507447458 641.3508141237982 0 0 0
14 1 1 0 644.9428683352818 652.5807904605525 640.5880066042865 0 0 0
15 1 1 0 644.4237340377592 652.8681068359255 639.2945366831518 0 0 0
16 1 1 0 642.4324290867203 652.3316484521528 640.4697506115386 0 0 0
17 1 1 0 643.0559739822202 652.5938269041795 639.231906593252 0 0 0
18 1 1 0 645.1652980324617 653.8649324536243 638.4649656729846 0 0 0
19 1 1 0 647.3983295788449 654.979708563509 638.738459058135 0 0 0
20 1 1 0 646.0502724738101 654.7507462163614 639.0874254303343 0 0 0
21 1 1 0 645.6422629984082 653.6257590663943 641.1589261069948 0 0 0
22 1 1 0 645.899997723101 654.9096972721896 640.5016542288231 0 0 0
23 1 1 0 643.014061163002 653.113655256742 643.1917353683651 0 0 0
24 1 1 0 642.1786929052387 653.9038568699457 642.320181992468 0 0 0
25 1 1 0 641.5236778491937 653.0933964710085 641.2993087337396 0 0 0
26 1 1 0 644.6392032297858 651.1080979813694 643.7920338073611 0 0 0
27 1 1 0 657.0396800253094 642.4813608900969 659.0540277870866 0 0 0
28 1 1 0 658.806163057256 638.6973569116981 660.3974456164001 0 0 0
29 1 1 0 658.5726382433558 640.221943952783 659.8585633459388 0 0 0
30 1 1 0 660.5998233373247 640.4462031288434 659.2300733605288 0 0 0
31 1 1 0 658.8685411782512 641.5574571499062 660.8169183722957 0 0 0
32 1 1 0 659.9409742516458 641.62913152908 659.5714188056064 0 0 0
33 1 1 0 657.7040434665911 642.5274022422424 660.4907893293799 0 0 0
34 1 1 0 658.2413249908892 644.0036136366292 660.3235874473377 0 0 0
35 1 1 0 661.0590304693092 641.4503492787657 657.1502957551368 0 0 0
36 1 1 0 660.1656022937927 642.8790592167841 659.0106330574991 0 0 0
37 1 1 0 659.3326776534279 643.9640575207507 659.1908209382451 0 0 0
38 1 1 0 657.587369717048 641.6518572665188 658.1165995659394 0 0 0
39 1 1 0 658.1178471695858 640.4511974923865 658.5244145713835 0 0 0
40 1 1 0 660.8060427785942 641.1749813195644 655.8170219662499 0 0 0
41 1 1 0 659.6393312514215 639.045737610691 655.4792111883187 0 0 0
42 1 1 0 660.912427014296 639.7991534998255 655.4412327166999 0 0 0
43 1 1 0 660.2339251779508 639.0632201757774 659.8111925707829 0 0 0
44 1 1 0 661.3014710799108 640.4149376765184 658.0233580776672 0 0 0
45 1 1 0 662.2074730172235 639.2594270860861 657.3949186418721 0 0 0
46 1 1 0 662.1931265777406 639.2101320463835 655.8441458099027 0 0 0
47 1 1 0 660.1418609720399 638.2823470222451 658.4505392830638 0 0 0
48 1 1 0 661.4184318590766 638.109264386659 658.0063455998159 0 0 0
49 1 1 0 659.1830777191203 637.4074039738522 657.9124021005895 0 0 0
50 1 1 0 658.1025424075098 637.666080105524 659.5713892292649 0 0 0
51 1 1 0 658.6316276309693 636.292839037973 658.9371586127036 0 0 0
52 1 1 0 646.2488642266547 652.5243584027922 644.8671460640232 0 0 0
53 1 1 0 648.6217604807192 652.4734717770261 644.0200249705327 0 0 0
54 1 1 0 647.9144397240541 653.8287642965805 644.0078171322921 0 0 0
55 1 1 0 646.7216027413137 653.8941175599656 644.8617745369689 0 0 0
56 1 1 0 647.2448342509812 651.8845818102435 643.9410557451064 0 0 0
57 1 1 0 646.4399036856623 656.0092652996319 641.1959680715347 0 0 0
58 1 1 0 642.6766537098262 652.8271882644759 645.5210350669937 0 0 0
59 1 1 0 643.8008565962135 653.218127159987 644.6225438700935 0 0 0
60 1 1 0 644.928386934293 652.1743058142911 644.6713332643515 0 0 0
61 1 1 0 646.5840975018799 651.9543871211865 642.6512157743006 0 0 0
62 1 1 0 646.5538859159934 653.2893691995439 642.1259969013641 0 0 0
63 1 1 0 647.6894769632761 654.2623037868635 642.5235073186237 0 0 0
64 1 1 0 647.1484340749324 655.6268986547111 642.420222802723 0 0 0
65 1 1 0 639.6552699129587 647.9809444534953 642.8360873902584 0 0 0
66 1 1 0 638.9971302747718 649.006711318196 643.5863952875286 0 0 0
67 1 1 0 640.5409947319133 649.9914221341496 645.0679045359428 0 0 0
68 1 1 0 641.0665567979676 651.1743186790585 645.7444772198616 0 0 0
69 1 1 0 639.4069302718698 649.230717765913 644.9198557661985 0 0 0
70 1 1 0 649.9218379727245 652.4948273153632 643.4306118815934 0 0 0
71 1 1 0 651.2555552593564 652.1928826928222 644.019691992701 0 0 0
72 1 1 0 651.8303624692197 653.4092370695284 644.4411226920728 0 0 0
73 1 1 0 659.7723161887972 644.7537732615759 654.8789152642494 0 0 0
74 1 1 0 641.8772101319682 655.1135283342855 645.1473778855319 0 0 0
75 1 1 0 640.9851401261333 648.0407177724232 642.1376624670634 0 0 0
76 1 1 0 642.3343881415905 649.559272023942 643.4145000741164 0 0 0
77 1 1 0 642.0519321577315 649.0193515922911 642.1990316361039 0 0 0
78 1 1 0 641.180965810526 650.3069875624485 643.8488008362579 0 0 0
79 1 1 0 640.2390234725616 652.3167317542004 645.466626987681 0 0 0
80 1 1 0 641.7735954551138 653.8660161464447 645.8250995066089 0 0 0
81 1 1 0 640.439919659119 653.5248939779092 646.2132572631792 0 0 0
82 1 1 0 640.6669515570928 655.644876790229 644.3577163068957 0 0 0
83 1 1 0 659.7626117744322 655.6258889397438 645.8629569210018 0 0 0
84 1 1 0 659.5237738668928 654.4714395410864 646.7662085217407 0 0 0
85 1 1 0 659.9341631303467 652.1738661133606 647.0086002937464 0 0 0
86 1 1 0 658.3030067851828 654.5405895110001 647.5943084037667 0 0 0
87 1 1 0 659.8005174628049 651.891732811023 648.3595822956212 0 0 0
88 1 1 0 660.5084388121891 650.9017195634132 649.0303860420311 0 0 0
89 1 1 0 659.6705637753365 653.167530700202 646.1151465425271 0 0 0
90 1 1 0 658.2735657415983 648.5551833469386 652.4613634428495 0 0 0
91 1 1 0 656.8365743794543 648.8984595501139 650.5605984808055 0 0 0
92 1 1 0 658.0407443049672 649.2437574954578 651.1961363388464 0 0 0
93 1 1 0 652.394389168495 650.1260720329135 644.4794406473632 0 0 0
94 1 1 0 652.3449909797113 651.311187042208 643.7039122996516 0 0 0
95 1 1 0 660.1013630662079 650.2197297991023 650.1003748109276 0 0 0
96 1 1 0 658.6271433500008 652.2850250869957 649.0021454171226 0 0 0
97 1 1 0 656.2933470454393 651.986162679515 645.7731297535943 0 0 0
98 1 1 0 654.6223636436695 650.5038263639003 644.9692749453791 0 0 0
99 1 1 0 655.3957789468055 650.99473567221 646.0392373177494 0 0 0
100 1 1 0 653.466885968964 649.4582348371324 646.7910394189763 0 0 0
101 1 1 0 653.3783532726378 649.9688288760692 645.4404894682233 0 0 0
102 1 1 0 655.2341187922431 650.7399472950617 647.4114772378501 0 0 0
103 1 1 0 655.9154229407935 651.5792217172417 648.3775211699449 0 0 0
104 1 1 0 654.4130494472641 649.6529426475344 647.802124729879 0 0 0
105 1 1 0 654.8112714352558 649.2333382699994 649.1173377064152 0 0 0
106 1 1 0 656.0486199465139 649.6469460740772 649.723636664896 0 0 0
107 1 1 0 658.7542844105832 650.3095162035438 650.4936039056495 0 0 0
108 1 1 0 657.8299773028363 653.3612398905683 648.3820284696986 0 0 0
109 1 1 0 656.2909927870315 653.1075583371132 646.6243450750985 0 0 0
110 1 1 0 656.5432450534207 652.8078651737809 647.9406239881254 0 0 0
111 1 1 0 656.5326489143918 650.9284523360641 649.4340946424546 0 0 0
112 1 1 0 657.9662539252894 651.2519283736904 649.7845005381467 0 0 0
113 1 1 0 657.2838808434097 655.2720802839455 646.832302815247 0 0 0
114 1 1 0 657.5879714905207 656.523994472344 646.0731760716667 0 0 0
115 1 1 0 658.9648669114642 656.7870234625105 645.8947491339314 0 0 0
116 1 1 0 656.5456758963337 657.7565059324392 644.0632131165188 0 0 0
117 1 1 0 656.871708143277 656.6726520405803 644.8121764889704 0 0 0
118 1 1 0 658.6721334211061 659.092747761902 644.5607543989238 0 0 0
119 1 1 0 657.3573550856513 658.914380653383 644.1164724146937 0 0 0
120 1 1 0 656.0386339543634 657.5681179319927 642.4412039961886 0 0 0
121 1 1 0 653.678214442624 651.775339174297 643.1483426370728 0 0 0
122 1 1 0 654.7963781114079 651.1400104187196 643.7925888457002 0 0 0
123 1 1 0 656.0789242023315 651.5880900533612 643.4366842758787 0 0 0
124 1 1 0 656.8626065658801 652.0248197035047 644.5364709211686 0 0 0
125 1 1 0 656.3944942775056 652.4298491411965 642.3181926109567 0 0 0
126 1 1 0 657.9138568589574 653.1469228215625 644.2505615757125 0 0 0
127 1 1 0 660.1283440650656 654.1450412980819 643.9626834975047 0 0 0
128 1 1 0 657.541918020136 653.2499171933746 642.7183785078327 0 0 0
129 1 1 0 656.5313114228354 654.3398339198806 646.0659893036368 0 0 0
130 1 1 0 656.9040619257198 654.2942013715651 644.7335020503054 0 0 0
131 1 1 0 657.1292755331116 654.7323140465152 640.7780609209452 0 0 0
132 1 1 0 657.3385896337803 656.8791189989461 642.1589311783599 0 0 0
133 1 1 0 657.5860566276056 655.6439604698379 642.8335989589586 0 0 0
134 1 1 0 656.9620703893506 655.4901540278705 644.0529137772678 0 0 0
135 1 1 0 657.745289851269 654.4677681480587 642.0655352864497 0 0 0
136 1 1 0 657.7806284036153 655.8955957511427 640.1565181819626 0 0 0
137 1 1 0 658.1402438383222 656.9928605174706 641.0105891035986 0 0 0
138 1 1 0 662.8875872414767 634.7721038301005 656.673494347665 0 0 0
139 1 1 0 643.2556905659688 655.5029264975096 644.9794747056094 0 0 0
140 1 1 0 644.33152549905 654.5149141523461 645.126473027475 0 0 0
141 1 1 0 645.6640253211945 654.90791479733 644.9490636956435 0 0 0
142 1 1 0 643.6025746836289 656.3600972426105 643.9318932186394 0 0 0
143 1 1 0 644.8966599393243 656.9798387867595 644.0234235973699 0 0 0
144 1 1 0 645.9596830393155 656.1427222389642 644.4128398019733 0 0 0
145 1 1 0 647.1307454374582 656.4076456532641 643.5719356517944 0 0 0
146 1 1 0 646.3526546083602 658.5676932239801 643.1068328948304 0 0 0
147 1 1 0 647.4600806905266 657.7938499265687 643.4321600271986 0 0 0
148 1 1 0 648.9225033221505 659.7162520807512 642.6524064727801 0 0 0
149 1 1 0 650.2428810807561 661.6194362040627 641.6511918352315 0 0 0
150 1 1 0 648.6707854126093 658.589488733836 643.4817048196494 0 0 0
151 1 1 0 650.0688435647007 660.2214379666743 641.9380673858617 0 0 0
152 1 1 0 651.4615996912264 662.0948351093605 640.8538160580064 0 0 0
153 1 1 0 645.1614479327626 657.8715367354214 643.029663951205 0 0 0
154 1 1 0 641.979578578066 655.2418714841099 642.5411566450846 0 0 0
155 1 1 0 643.1842499847866 655.9542705484175 642.6664757571579 0 0 0
156 1 1 0 644.6123738464464 657.5220084382557 641.710677277804 0 0 0
157 1 1 0 646.4217167677862 659.5937083711519 642.0527506641038 0 0 0
158 1 1 0 648.0621792566903 661.088501394869 641.0503978556013 0 0 0
159 1 1 0 647.7454524876212 660.3023456694639 642.1163527049875 0 0 0
160 1 1 0 648.9460544910456 662.1540863824365 641.2334699943094 0 0 0
161 1 1 0 641.0086361286685 656.2569422743671 643.0501538252829 0 0 0
162 1 1 0 641.1334438902924 657.5562910884112 642.3628393981766 0 0 0
163 1 1 0 642.2184240174842 657.6929548578196 641.3786213739443 0 0 0
164 1 1 0 642.7726440834526 659.02616805036 641.1448600206872 0 0 0
165 1 1 0 643.3659573952698 656.8819991161407 641.6724034067314 0 0 0
166 1 1 0 643.8292733258178 659.2237383813188 640.2505914364574 0 0 0
167 1 1 0 644.8738107022568 658.3778180730494 640.6540264227682 0 0 0
168 1 1 0 646.3846328291239 658.6748568685333 640.6954039182679 0 0 0
169 1 1 0 646.6636616229587 659.6260533421416 639.5686599599381 0 0 0
170 1 1 0 648.1360278886787 660.2136148651653 639.6730736459526 0 0 0
171 1 1 0 648.9499445263448 663.0200312467356 640.0855998868391 0 0 0
172 1 1 0 640.5919636798805 658.9490401626194 642.5820207399848 0 0 0
173 1 1 0 646.9596691011911 657.1945602627638 640.5852834659355 0 0 0
174 1 1 0 648.3225288216822 655.5706406965201 639.6023088953324 0 0 0
175 1 1 0 649.2146144403382 655.0199346884059 640.5822986458356 0 0 0
176 1 1 0 648.9113027356016 654.1454430497398 641.6637549606891 0 0 0
177 1 1 0 650.3090118815451 655.8048452761769 640.6627981441309 0 0 0
178 1 1 0 649.9736661377486 653.6225834309088 642.4727266479842 0 0 0
179 1 1 0 653.5861790832911 655.2020208214766 641.8556106636196 0 0 0
180 1 1 0 653.383143690734 654.1315253004678 642.7042937505277 0 0 0
181 1 1 0 651.0741257501751 654.4732950966729 642.5621004398985 0 0 0
182 1 1 0 652.530107696467 655.949240518931 641.4217349695134 0 0 0
183 1 1 0 651.2608283170305 655.4235463128928 641.5885614798365 0 0 0
184 1 1 0 652.1606610335857 654.2362078243668 643.3968958327475 0 0 0
185 1 1 0 648.0707037696353 656.9895602816628 639.7959005367418 0 0 0
186 1 1 0 649.1948583282626 659.1278303951343 639.8914501201521 0 0 0
187 1 1 0 649.2210838412336 657.7761108435378 639.6982467150028 0 0 0
188 1 1 0 651.5902824532366 659.1434500319197 640.3626482540268 0 0 0
189 1 1 0 650.2682285446547 659.5446941901657 640.7060344758603 0 0 0
190 1 1 0 650.4156267971783 657.0700032969462 640.0915657767941 0 0 0
191 1 1 0 651.6710327520058 657.744740223127 640.1996914629458 0 0 0
192 1 1 0 652.756706030199 659.894363071952 640.7614736140087 0 0 0
193 1 1 0 654.0499383290054 659.1934064601995 640.8695204037307 0 0 0
194 1 1 0 654.0322425196525 657.748944929777 640.9686973854893 0 0 0
195 1 1 0 652.728671071653 657.1676044104756 640.8605157474906 0 0 0
196 1 1 0 652.5468728755122 661.2544077943129 641.0534919065574 0 0 0
197 1 1 0 654.0178620442915 652.9451284129028 642.364871634459 0 0 0
198 1 1 0 654.8682184433871 655.5621446656977 641.4303676028735 0 0 0
199 1 1 0 655.6803513911683 654.4258780997559 640.9980771304726 0 0 0
200 1 1 0 655.3036591006614 653.1610538985074 641.736491139382 0 0 0
201 1 1 0 655.0450732784994 656.9846974396422 641.5053445094431 0 0 0
202 1 1 0 658.9731486551384 662.2413940232065 639.8171863895717 0 0 0
203 1 1 0 660.0365254945859 662.3231272890129 638.930962041266 0 0 0
204 1 1 0 658.6118161671649 660.923349526396 640.0641493706837 0 0 0
205 1 1 0 659.6985635854345 660.0564816426265 640.4060241987718 0 0 0
206 1 1 0 658.0031702566001 643.1277214083922 654.3756113367249 0 0 0
207 1 1 0 656.671650410051 643.6650259970227 654.5073842106726 0 0 0
208 1 1 0 658.6919485341895 642.004726813765 654.8676821553272 0 0 0
209 1 1 0 657.2407899367114 641.7260219241639 656.7347861055655 0 0 0
210 1 1 0 658.0813743565657 641.125217566035 655.7677707410007 0 0 0
211 1 1 0 658.5050049093073 639.8246840167913 656.1390680251358 0 0 0
212 1 1 0 657.9393836665811 639.4580278849364 657.42553587647 0 0 0
213 1 1 0 655.8400819502066 644.7463248025862 656.5716760700903 0 0 0
214 1 1 0 656.0230835719543 643.5913204661665 655.7784373780506 0 0 0
215 1 1 0 655.6762528499996 643.1585227448311 658.6487594374914 0 0 0
216 1 1 0 655.1498534712634 642.2628138541055 657.5852446980385 0 0 0
217 1 1 0 656.0140029885454 642.3820396033916 656.4915244274739 0 0 0
218 1 1 0 654.7818551705805 640.9354313005432 658.0069246881056 0 0 0
219 1 1 0 658.7880870165253 644.3250778388253 653.9108590642601 0 0 0
220 1 1 0 657.8769642383746 645.043657011518 653.0454951610492 0 0 0
221 1 1 0 657.8165034663064 646.1048600496038 652.1266718397161 0 0 0
222 1 1 0 656.6302621263962 644.9302923861833 653.8661453950143 0 0 0
223 1 1 0 656.3949199630558 646.1208489701407 654.5810068655749 0 0 0
224 1 1 0 656.1665455886981 635.3128523020318 658.9887336227059 0 0 0
225 1 1 0 657.4018662231755 635.5513123889169 658.3939528474644 0 0 0
226 1 1 0 655.693597468146 633.9549858451512 658.9516458044271 0 0 0
227 1 1 0 657.0815517527296 631.9824956018671 658.9613791134035 0 0 0
228 1 1 0 657.6914317596173 634.9329682091135 657.1918976695932 0 0 0
229 1 1 0 656.5710167150066 633.0881427622691 658.1963798858476 0 0 0
230 1 1 0 657.4212880821777 633.5474320432294 657.1240345893261 0 0 0
231 1 1 0 655.4745069179755 643.2164877955463 660.2200485873906 0 0 0
232 1 1 0 656.6245128971183 645.4293503114345 658.7033930288462 0 0 0
233 1 1 0 655.8965528281786 644.5113664181674 657.9750913124099 0 0 0
234 1 1 0 657.4172499049519 646.335210671696 658.0451542917235 0 0 0
235 1 1 0 657.0691761203431 645.0509352752056 660.1256177813516 0 0 0
236 1 1 0 657.451466167855 647.3511340531334 652.6506082782372 0 0 0
237 1 1 0 656.2887811490828 645.9628475358245 655.9832575439913 0 0 0
238 1 1 0 657.3601754069218 646.5811535608638 656.7084345862214 0 0 0
239 1 1 0 658.8072770675137 648.6944425264726 653.8197878870815 0 0 0
240 1 1 0 658.1516125212102 647.772702222796 654.8088610787306 0 0 0
241 1 1 0 658.5176951612747 646.9237519348276 655.8724966251132 0 0 0
242 1 1 0 657.0215004919091 647.2521717226344 654.0307588134111 0 0 0
7852 1 1 0 635.3113745885371 634.2012620872459 682.4072203700047 0 0 0
244 1 1 0 658.9257946659183 636.9929105416551 656.5805097786568 0 0 0
245 1 1 0 658.5909425157867 635.5600498752614 656.3203638019443 0 0 0
246 1 1 0 658.4793475512702 632.7470601153084 656.7212878248575 0 0 0
247 1 1 0 659.5071938737501 637.6175666736151 655.4294695035032 0 0 0
248 1 1 0 662.297814981214 634.1108206803542 657.7751356320064 0 0 0
249 1 1 0 663.1775659202046 638.3770914274997 655.1556584973155 0 0 0
250 1 1 0 663.2630963618744 636.5389970369683 657.6355547662756 0 0 0
251 1 1 0 664.1973583543171 637.5398971485861 657.0993983943082 0 0 0
252 1 1 0 663.9244602183963 635.5483230383886 658.4920389529684 0 0 0
253 1 1 0 664.3532527302115 637.885957885323 655.7741464658304 0 0 0
254 1 1 0 661.8285002894858 636.8486388583725 658.1794143073098 0 0 0
255 1 1 0 664.3450020662071 634.2442129230016 656.4689355321033 0 0 0
256 1 1 0 664.7066189262633 634.5642889304163 657.929418065795 0 0 0
257 1 1 0 659.3830233249421 634.0331691720686 659.6475197242395 0 0 0
258 1 1 0 659.7848731469463 635.3561732474285 659.1818053220185 0 0 0
259 1 1 0 660.0578112662919 632.8292762764602 659.6089803589499 0 0 0
260 1 1 0 661.4201040369334 632.3397305672878 659.6588039012037 0 0 0
261 1 1 0 661.1024769252982 635.8049056102204 658.8701499202185 0 0 0
262 1 1 0 662.1251208553945 634.824007053511 659.006718113254 0 0 0
263 1 1 0 663.4137306617903 635.1580685377671 659.8921694030417 0 0 0
264 1 1 0 662.0060890784916 632.8146527419576 660.9405294870936 0 0 0
265 1 1 0 641.014976174804 647.2508976251719 640.9505697238609 0 0 0
266 1 1 0 641.3835697329936 648.1299380125921 639.8072673902673 0 0 0
267 1 1 0 640.181910353582 652.459482771406 644.0491099618611 0 0 0
268 1 1 0 641.0123885714314 651.6537583196426 643.114654394519 0 0 0
269 1 1 0 640.5706517567374 652.1969744318725 641.7231728829117 0 0 0
270 1 1 0 642.1357736763465 649.9067472979789 641.1037745230088 0 0 0
271 1 1 0 639.4400982474291 654.5463829971512 646.1231254387081 0 0 0
272 1 1 0 639.3917722803191 655.0932023079306 644.805588732543 0 0 0
273 1 1 0 638.2042566238514 654.3623826203825 646.808021289325 0 0 0
274 1 1 0 660.1789764180619 655.4968738232633 644.427725204812 0 0 0
275 1 1 0 659.3269642976715 653.233171419227 644.7054827551651 0 0 0
276 1 1 0 639.8512937927312 646.6046580857543 636.2702661415703 0 0 0
277 1 1 0 639.3715421886329 644.2625963113892 636.0830332835203 0 0 0
278 1 1 0 640.8467605290107 647.5142712658767 638.5956145345796 0 0 0
279 1 1 0 639.2058555292593 653.152222446206 643.3437232634574 0 0 0
280 1 1 0 641.182874740183 649.4954762429896 640.0908110702229 0 0 0
281 1 1 0 638.4946520735738 654.0860170849409 644.0892653042583 0 0 0
282 1 1 0 637.3626796399487 653.3988961851378 644.7554845882678 0 0 0
283 1 1 0 637.1917365907499 653.6622968099894 646.1430288828207 0 0 0
284 1 1 0 659.4120500234861 657.7150706171666 644.733963369535 0 0 0
285 1 1 0 659.7457924029554 656.5865183715752 643.6249164297437 0 0 0
286 1 1 0 640.6014741579256 646.1101596275028 638.9513882916996 0 0 0
287 1 1 0 640.3297654781284 645.064093423139 638.1254879979449 0 0 0
288 1 1 0 640.0820279281867 645.3115004962616 636.7362543260213 0 0 0
289 1 1 0 639.5679724070159 642.8977948322035 636.4398365380465 0 0 0
290 1 1 0 658.8928100088176 631.6447376826551 657.4911394907215 0 0 0
291 1 1 0 636.1127566594378 652.964575787758 646.741287648714 0 0 0
292 1 1 0 660.1043692196877 657.2952931003705 642.4356585308863 0 0 0
293 1 1 0 640.5032088154887 645.9989436090945 640.3935862119512 0 0 0
294 1 1 0 639.911878058022 643.8321591791522 638.8055737061025 0 0 0
295 1 1 0 639.4068850975437 642.7866324808539 637.9449067571885 0 0 0
296 1 1 0 639.5406129931588 645.1431586767048 640.9069160953984 0 0 0
297 1 1 0 639.1624243556993 644.0332006194008 640.0886953108566 0 0 0
298 1 1 0 637.7242375187003 643.8060195429096 639.9780310747688 0 0 0
299 1 1 0 659.2667466620242 633.2697488801994 655.6746445925174 0 0 0
300 1 1 0 659.2468140809194 634.6820004496573 655.3729205117543 0 0 0
301 1 1 0 638.4690124378384 652.2746821989126 642.477399236821 0 0 0
302 1 1 0 639.7739283550034 649.8845820658066 639.8463968130106 0 0 0
303 1 1 0 639.7104848746188 648.2082138084248 638.0136550447095 0 0 0
304 1 1 0 636.9374432152927 652.1136951172624 644.2436110034066 0 0 0
305 1 1 0 635.5689592278632 651.7675826936119 646.2389645981335 0 0 0
306 1 1 0 639.1116860386408 646.7476822853898 642.6446490768262 0 0 0
307 1 1 0 638.6122801334457 645.7526940192865 641.8082786843402 0 0 0
308 1 1 0 636.7694142128562 644.3887483013884 640.9295652831657 0 0 0
309 1 1 0 637.2504081096165 645.663724807107 641.4984095997366 0 0 0
310 1 1 0 635.5186303147997 644.5297908769638 640.2754550576656 0 0 0
311 1 1 0 633.4127867214248 648.6809813342635 648.6965799413132 0 0 0
312 1 1 0 639.3056199037617 651.7767813143861 641.4305151883729 0 0 0
313 1 1 0 635.987190608553 651.3284750515102 644.9485691854188 0 0 0
314 1 1 0 660.4199555731802 636.6548942760818 654.8367131008569 0 0 0
315 1 1 0 634.2313376884699 651.3345817362355 648.1313788744403 0 0 0
316 1 1 0 661.723683833401 636.7129477270573 655.366098476957 0 0 0
317 1 1 0 639.0210424319424 650.6269597318507 640.7911742037157 0 0 0
318 1 1 0 639.0323589324655 649.0890470200836 638.8777993459136 0 0 0
319 1 1 0 637.6449288068086 651.445276308557 643.2582584325809 0 0 0
320 1 1 0 634.7946228263318 650.9384638841124 646.9812297756251 0 0 0
321 1 1 0 633.850003661182 651.6123017954473 649.378139466055 0 0 0
322 1 1 0 663.7824858921949 632.7458568475754 656.7241956774482 0 0 0
323 1 1 0 662.7109332051641 632.7868244126969 657.6358781399458 0 0 0
324 1 1 0 662.3191990154274 636.0574303431434 656.4119619409583 0 0 0
325 1 1 0 637.2108198470646 643.587669076799 638.6545346987663 0 0 0
326 1 1 0 638.0258485992654 649.9101505100515 641.3819087314896 0 0 0
327 1 1 0 638.9972533698898 647.3608706665062 637.0842996280617 0 0 0
328 1 1 0 635.7892028125136 650.0201055266244 644.5246503517362 0 0 0
329 1 1 0 664.6301232419826 631.6687962414488 656.6888046363989 0 0 0
330 1 1 0 662.6380725417482 637.2899902359337 654.4216861615845 0 0 0
331 1 1 0 665.2494268079604 636.9989887609302 655.1227366209894 0 0 0
332 1 1 0 660.2109506439922 635.2747301869301 654.4770848878527 0 0 0
333 1 1 0 661.374364626 632.774802595497 662.2196393118977 0 0 0
334 1 1 0 637.9086403396786 642.8562629424886 637.6781731788063 0 0 0
335 1 1 0 635.7765054674345 645.4254318578444 639.1278121483458 0 0 0
336 1 1 0 637.9093040922137 649.8948017696264 642.9403700824325 0 0 0
337 1 1 0 637.3431732712332 648.9653081397059 640.6606461148511 0 0 0
338 1 1 0 637.7255502079386 648.6292505757231 639.3019720906099 0 0 0
339 1 1 0 637.1787608603493 647.4200409121822 638.6267609422904 0 0 0
340 1 1 0 637.7113144646617 646.8354972566328 637.4746305919493 0 0 0
341 1 1 0 636.5162637511056 649.4705605170658 643.4408427500696 0 0 0
342 1 1 0 634.8965184714104 649.2374407230012 645.2675055068677 0 0 0
343 1 1 0 634.5977766450696 649.6185182744567 646.6057032518042 0 0 0
344 1 1 0 639.5630225316811 634.0305147852504 633.6897187484617 0 0 0
345 1 1 0 661.036267224435 658.3144348207244 642.858728021618 0 0 0
346 1 1 0 662.3258839443687 631.8018941382647 658.5197394143053 0 0 0
347 1 1 0 660.2534155318108 632.4490783986956 655.1703739141844 0 0 0
348 1 1 0 637.2583470873071 645.4783085964634 637.095559175224 0 0 0
349 1 1 0 634.3867296225209 648.1522284677654 644.5686373231682 0 0 0
350 1 1 0 633.8873359604852 648.8140579298639 647.4623820006796 0 0 0
351 1 1 0 636.5681504738851 644.7557617957024 638.1521309305577 0 0 0
352 1 1 0 660.7573456631357 658.4592260199222 644.2524800139723 0 0 0
353 1 1 0 659.2057140440954 657.8421703725115 641.4442201243634 0 0 0
354 1 1 0 660.9155856142485 659.7328298677722 644.8513859236755 0 0 0
355 1 1 0 666.2562716331485 636.0820089506844 656.0204355423082 0 0 0
356 1 1 0 663.2837211498866 636.202837373141 653.8144084161556 0 0 0
357 1 1 0 661.3189362050756 634.4580753830802 654.03997787196 0 0 0
1751 1 1 0 635.5446813239831 682.050717882569 665.9548208378344 0 0 0
1568 1 1 0 635.1082050059331 634.9578221247929 632.5026431029281 0 0 0
360 1 1 0 636.5168424778744 648.1079820629701 641.3976838998493 0 0 0
361 1 1 0 636.2509921344563 646.6775731317823 639.5224145950725 0 0 0
362 1 1 0 635.8763427610523 648.4253672687684 642.6110825614877 0 0 0
363 1 1 0 634.7990307728802 647.7722084429254 643.2918578931049 0 0 0
364 1 1 0 658.0064202728101 660.2915613991238 642.1565260361829 0 0 0
365 1 1 0 656.9812619640096 659.6797623137186 642.9977806358575 0 0 0
366 1 1 0 659.5531370464826 660.2288733391193 644.5952053555764 0 0 0
367 1 1 0 659.1043536564067 659.292930446443 641.4456313852986 0 0 0
368 1 1 0 655.8994394786384 659.1225311732334 642.3612320240914 0 0 0
369 1 1 0 664.703267070558 636.2052180918478 654.0951622443381 0 0 0
370 1 1 0 662.6455331195953 634.9518202902353 653.4358308683597 0 0 0
371 1 1 0 661.1412311875505 632.9898304190147 654.1557146858229 0 0 0
372 1 1 0 638.9941593429522 632.73271291919 633.3974198770449 0 0 0
373 1 1 0 637.5829299991917 643.0638995085415 636.2742446161236 0 0 0
374 1 1 0 636.5444077475141 646.7888683855946 640.9200664495671 0 0 0
375 1 1 0 657.3487200722479 660.677125461029 640.7441455832661 0 0 0
376 1 1 0 655.2124259915034 659.8164495621243 641.3188639936793 0 0 0
377 1 1 0 658.4145185573868 661.4769799768022 642.8973772301367 0 0 0
378 1 1 0 659.4814429878827 661.3874317671707 643.7997976855336 0 0 0
379 1 1 0 667.8217682179793 635.5299487174973 655.9039976004526 0 0 0
380 1 1 0 637.634705253504 632.2859259570936 633.3006336539379 0 0 0
381 1 1 0 638.627880559665 641.9355234720329 635.6949747314376 0 0 0
382 1 1 0 637.867723378454 644.616354483638 636.1115006877137 0 0 0
383 1 1 0 662.0004948637566 660.499782056455 644.3268732643413 0 0 0
384 1 1 0 656.0089100677814 660.9927214625798 640.8211412710978 0 0 0
385 1 1 0 668.2780919093656 634.6438223170222 654.8816043966244 0 0 0
386 1 1 0 665.2134316161139 634.9395046991032 654.1408150419205 0 0 0
387 1 1 0 656.1016578224825 642.0206251123237 660.8263143933261 0 0 0
388 1 1 0 661.0002985069689 660.4537396246616 640.1759677070833 0 0 0
389 1 1 0 661.1735951070086 661.5465844844394 639.2546299070317 0 0 0
390 1 1 0 660.0881228030706 663.8411856962264 638.6835392850636 0 0 0
391 1 1 0 655.7672907355167 662.4519361385102 640.9393477348376 0 0 0
392 1 1 0 660.6411171999165 662.2677097576048 643.552716774836 0 0 0
393 1 1 0 658.0814771524838 662.7105096476433 642.3897395140391 0 0 0
394 1 1 0 662.0270861813533 632.135407974459 653.4666533710263 0 0 0
395 1 1 0 640.0818601522872 635.0426990047551 632.8698223285513 0 0 0
2021 1 1 0 682.0553971540348 653.0398760444294 673.0886939499825 0 0 0
397 1 1 0 638.8017947150651 640.6081479023654 635.3461120578504 0 0 0
398 1 1 0 638.912037693796 639.3939263077065 634.8495646667033 0 0 0
399 1 1 0 661.3802166492102 664.1263597317986 637.9241966880835 0 0 0
400 1 1 0 661.4218716504823 665.5156755812636 637.7960064829641 0 0 0
401 1 1 0 656.9239733310478 663.103970615356 641.5944797098582 0 0 0
402 1 1 0 660.5550434904525 663.1583878787529 642.4479184427503 0 0 0
403 1 1 0 659.26581930423 663.4338718864707 641.9674342674896 0 0 0
404 1 1 0 661.893223915811 661.9370247968798 644.0907901865642 0 0 0
405 1 1 0 657.3949137797098 664.1512190278427 640.5665611024356 0 0 0
406 1 1 0 639.386835551167 659.4276614358812 642.0308913123849 0 0 0
407 1 1 0 669.5410490713413 634.0876099435471 654.5369319580759 0 0 0
408 1 1 0 664.9422969021766 634.045361036558 653.1081394100562 0 0 0
409 1 1 0 663.5080570974833 633.9140777563699 652.8803013776343 0 0 0
410 1 1 0 662.447202830144 663.3376770354269 638.1634506004373 0 0 0
411 1 1 0 662.4670095248979 662.0644859421127 638.8828345267972 0 0 0
412 1 1 0 662.4605430418113 665.9707167617428 638.6942739717516 0 0 0
413 1 1 0 662.0905851843678 665.755986536853 640.3279546161464 0 0 0
414 1 1 0 662.0218800470705 660.0574859767621 641.0325190894308 0 0 0
415 1 1 0 661.871959787652 659.2600688371407 642.3203801691932 0 0 0
416 1 1 0 658.8461064426781 663.5348662424079 640.5519635957853 0 0 0
417 1 1 0 657.9528876178804 665.5827480371042 640.8991450748262 0 0 0
418 1 1 0 663.0798410988087 632.5928802775179 652.6435631413709 0 0 0
419 1 1 0 655.241779128275 639.8070247382566 660.039307902689 0 0 0
420 1 1 0 655.4504575541846 639.9857995217457 662.3841020912926 0 0 0
421 1 1 0 638.8714036121291 638.1410092399133 634.378781974105 0 0 0
422 1 1 0 636.150675217816 636.5510364754059 634.0191579984157 0 0 0
423 1 1 0 663.6960894071157 665.3903443985354 638.2095451378588 0 0 0
424 1 1 0 662.9496861533519 667.0278464773037 639.7806677542974 0 0 0
425 1 1 0 667.275231495083 633.7022290421321 654.598506066995 0 0 0
426 1 1 0 655.7830007246693 644.4433812935615 660.7493100951829 0 0 0
427 1 1 0 655.572104467964 639.9727416262062 658.6424874733387 0 0 0
428 1 1 0 656.6547849303231 639.1329852286656 658.2471531225175 0 0 0