LAMMPS data file via write_data, version 2 Aug 2023, timestep = 50000, units = metal

31820 atoms
1 atom types

639.2986834185426 733.3893155814546 xlo xhi
639.6845375129183 733.7124614870909 ylo yhi
639.6499696122589 733.7470293877502 zlo zhi

Masses

1 12.0107

Atoms # full

1 1 1 0 680.1466375718326 668.8584877662233 668.6060987383307 0 0 0
9140 1 1 0 654.3930507409106 640.1776301686427 659.4160444667326 0 1 0
3 1 1 0 654.5516328334458 682.9137901225639 644.9217679614542 0 0 0
4 1 1 0 643.584866516413 654.3846024343561 654.443068225028 0 0 0
5 1 1 0 681.1801760987424 661.4657740861194 640.087682913373 0 0 0
6 1 1 0 670.3007811620746 685.1268273486927 660.7969314895614 0 0 0
7 1 1 0 667.7240460830546 684.3197582401783 640.834825845761 0 0 0
8 1 1 0 644.21633138439 644.4515099581477 675.4740321115235 0 0 0
9 1 1 0 647.4653259041337 647.3992292357999 674.7724329670752 0 0 0
10 1 1 0 647.8180159588056 660.6647046183023 641.7451560625493 0 0 0
11 1 1 0 658.1769013223461 640.8398244983139 662.1474098986884 0 0 0
12 1 1 0 662.9210752265793 643.7575325206658 661.2561979801758 0 0 0
13 1 1 0 651.7095656497625 671.497048229947 685.5617188938306 0 0 0
14 1 1 0 641.1309180305688 659.8648530168657 652.099963175859 0 0 0
15 1 1 0 661.37141683458 642.4979987088216 659.7338101106624 0 0 0
16 1 1 0 642.1014080045054 663.8115293135743 685.400815745293 0 0 0
17 1 1 0 641.8264195098742 655.221109226151 657.6304020616642 0 0 0
18 1 1 0 683.2493410772526 642.7243854214026 669.339551163161 0 0 0
19 1 1 0 684.7988680071214 648.3222623300866 662.7302072591891 0 0 0
20 1 1 0 653.5481815770265 640.7761048745986 678.1224242455996 0 0 0
21 1 1 0 640.084641782539 660.0359369215191 644.8208171815794 0 0 0
436 1 1 0 686.0186886913156 647.1799708050877 658.3957459068722 0 0 0
3360 1 1 0 671.0980071571804 639.8848955842371 659.9531488160787 0 0 0
24 1 1 0 650.6552261948783 660.4844283159042 641.6718665975317 0 0 0
25 1 1 0 642.4024237525578 684.8806849500621 661.4759931842619 0 0 0
26 1 1 0 663.4441771917079 664.8981885460842 685.3371952892746 0 0 0
27 1 1 0 685.5076248617576 644.8957429355771 661.1501072722191 0 0 0
28 1 1 0 655.3013609610241 659.0880359567217 641.5143077044575 0 0 0
29 1 1 0 675.6557035065473 665.7174303492488 645.7604278200623 0 0 0
30 1 1 0 640.2634867079543 661.699519599346 640.6431080878854 0 0 0
31 1 1 0 659.90840323361 676.5583493957051 642.1621910088402 0 0 0
32 1 1 0 651.4068886233418 648.2129228182297 676.9719119136399 0 0 0
33 1 1 0 640.2405437530223 661.5654326701916 642.9824760376365 0 0 0
34 1 1 0 648.7756837301685 647.795195376525 675.4667625557745 0 0 0
35 1 1 0 682.2528588705705 644.1974846593166 682.3932139030456 0 0 0
36 1 1 0 652.214571081765 646.5685526880748 675.5054126324937 0 0 0
37 1 1 0 651.2406248957385 647.7871858513938 675.362594509759 0 0 0
38 1 1 0 641.7437247292346 683.6517845889126 675.016470584476 0 0 0
39 1 1 0 642.4639691269963 685.0690269232506 681.8512691752601 0 0 0
233 1 1 0 680.2513870239438 669.9067229831527 639.7419535911976 0 0 0
41 1 1 0 679.628734603478 669.5063636268735 640.9156582064137 0 0 0
42 1 1 0 643.2258017096729 669.3724321835239 675.529665057569 0 0 0
43 1 1 0 641.8243908409437 669.5286613780444 675.3674035593575 0 0 0
44 1 1 0 645.1815800919146 646.6244911054682 677.6803129537768 0 0 0
45 1 1 0 645.4327170755665 682.775802508264 682.3065292554884 0 0 0
46 1 1 0 644.5714618956821 645.8547149499855 675.1212243673695 0 0 0
47 1 1 0 642.4926131084857 685.1878734445783 678.6215113574838 0 0 0
48 1 1 0 641.6488841887636 645.3066009927855 676.285921125226 0 0 0
49 1 1 0 647.0785221159372 645.8688853695246 674.7015296097791 0 0 0
50 1 1 0 651.1178798375131 684.0797677755139 647.6185335506613 0 0 0
51 1 1 0 645.8261640421391 645.6482042280861 674.2233169495179 0 0 0
52 1 1 0 646.5060680787609 647.222170328469 676.0483714145563 0 0 0
53 1 1 0 645.3083177710455 646.5807273648978 676.3209300780378 0 0 0
54 1 1 0 680.9176940340509 665.1577042623942 672.0200026288703 0 0 0
55 1 1 0 642.3766264637557 661.398802326124 641.8151237885093 0 0 0
56 1 1 0 642.331267511221 645.132178011371 680.9858518994241 0 0 0
57 1 1 0 655.8668886373508 658.3066293261843 640.3168093093781 0 0 0
58 1 1 0 648.4661218001331 645.7097461401067 678.0751285874475 0 0 0
9543 1 1 0 680.3910800919067 686.4998995675155 643.523821154266 0 0 0
60 1 1 0 645.3423889881307 674.3651331246497 680.1633820024545 0 0 0
61 1 1 0 651.4715861649813 670.5355981981537 682.7507455126046 0 0 0
1347 1 1 0 659.9558466475827 668.3756983674417 686.0159196060025 0 0 0
63 1 1 0 640.6663571692359 685.7435784148709 676.4330089113555 0 0 0
64 1 1 0 680.3397598659901 665.7721766636732 640.8221312353962 0 0 0
65 1 1 0 641.6251384798275 652.4586718449003 652.1422402666371 0 0 0
66 1 1 0 671.0669359615796 662.2348535931391 685.1505407876768 0 0 0
67 1 1 0 641.795043854938 641.8630304644267 642.6632500650393 0 0 0
68 1 1 0 652.9335711595847 644.1284306933493 675.579846410061 0 0 0
69 1 1 0 641.6267424268677 675.2047899246747 640.2842395839432 0 0 0
70 1 1 0 682.4630849730605 642.7476049106936 674.3320666311935 0 0 0
71 1 1 0 651.9644684570919 645.1416418456655 675.9003199602283 0 0 0
72 1 1 0 647.3737893891695 649.1299466653776 676.8378843654882 0 0 0
73 1 1 0 650.129989779042 649.2353349369232 677.0606484859298 0 0 0
11896 1 1 0 671.7720661461701 686.058508459033 642.4826468617772 0 0 0
75 1 1 0 644.0275964859385 685.3850632497475 676.7668781139926 0 0 0
76 1 1 0 678.0349857359245 679.5978604683422 685.7088922928883 0 0 0
77 1 1 0 639.8597571852151 643.2545332489146 642.3847471103504 0 0 0
78 1 1 0 676.3532685225176 642.1812685667834 683.8915231712925 0 0 0
987 1 1 0 639.4889164933022 641.5379966366362 648.2391571781285 0 0 0
80 1 1 0 639.6567569776802 647.7906913290248 674.5682364610608 0 0 0
718 1 1 0 686.1327667468599 650.1176699933667 673.3406807458881 0 0 0
82 1 1 0 641.6058256207499 661.4583472397861 640.6638356496203 0 0 0
83 1 1 0 641.1954889504646 642.9441170530947 642.0144094790543 0 0 0
15992 1 1 0 639.524063089241 642.9898873168369 657.8899705461087 1 0 0
85 1 1 0 639.759890668765 662.528781783624 646.6002427126278 0 0 0
86 1 1 0 641.7803651795916 661.659417390546 643.14558989597 0 0 0
87 1 1 0 641.3034828434319 678.2100510792277 642.1723171998135 0 0 0
88 1 1 0 649.276289969401 641.6792192863987 680.0415509906629 0 0 0
89 1 1 0 650.4071890470972 646.9815917950106 677.0079898468822 0 0 0
90 1 1 0 644.1930599883177 685.7277024311205 667.4621180023364 0 0 0
91 1 1 0 685.2857094496432 641.2755332193154 675.130786112823 0 0 0
92 1 1 0 640.5796992232196 661.0550959871211 657.3594617794166 0 0 0
93 1 1 0 641.1309270324713 645.3002845839022 681.6809665922515 0 0 0
94 1 1 0 655.2781778696202 684.0094532317767 644.5569645988047 0 0 0
95 1 1 0 657.8091676153924 651.4188730340746 682.8698521048756 0 0 0
96 1 1 0 683.6041692694583 667.2807386660428 649.2620858219539 0 0 0
97 1 1 0 643.8482169670491 664.5221352323366 640.9361934795145 0 0 0
98 1 1 0 660.8795747254532 652.5098083115587 684.8996432166887 0 0 0
1128 1 1 0 661.5593766838501 686.477896119347 641.4028065641533 0 0 0
4329 1 1 0 682.9887616614149 649.7179732039579 686.6540429771867 0 0 0
101 1 1 0 642.6765913281658 659.062584739921 650.3151860340273 0 0 0
102 1 1 0 643.0549670407526 641.4098947242918 642.2461641300889 0 0 0
103 1 1 0 650.4010045968025 643.353080705699 678.7555787661025 0 0 0
104 1 1 0 640.1246761801539 640.3489258585365 648.4874836131112 0 0 0
5981 1 1 0 667.9422402964427 680.352508973691 640.1420903368606 0 0 1
106 1 1 0 667.7185078539195 656.6115024415268 641.5807213000384 0 0 0
107 1 1 0 683.2617191159441 642.5344688620253 666.8099895324327 0 0 0
108 1 1 0 645.7687079131904 660.2450378614814 645.4890868246092 0 0 0
109 1 1 0 660.2143461658542 653.9257741482993 640.1048300540226 0 0 0
160 1 1 0 672.7883238263846 652.1861657153701 640.0866315746183 0 0 0
111 1 1 0 684.3371335061807 675.6463354482006 657.0750903011915 0 0 0
207 1 1 0 670.600047781625 662.9009938731082 686.3002138166993 0 0 0
1931 1 1 0 639.5290442382151 661.0770078773426 644.0417643779998 0 0 0
114 1 1 0 680.4802944399098 667.2669687361479 640.7482295301169 0 0 0
115 1 1 0 652.3376078477598 681.9634172705703 645.1278489693776 0 0 0
1088 1 1 0 670.852192119068 686.3530348093616 672.6925833652073 0 0 0
117 1 1 0 683.1455547771135 666.9350769742063 650.6750342952162 0 0 0
118 1 1 0 644.3945794399518 684.683377129868 675.5999124406053 0 0 0
119 1 1 0 645.61868716729 676.9566832327552 679.3429445037237 0 0 0
120 1 1 0 678.6559569568825 667.1709341089568 648.6753291124049 0 0 0
121 1 1 0 647.0580445087579 671.0968162493656 682.1483554751783 0 0 0
122 1 1 0 685.6790985328342 650.278050331358 656.4499981932473 0 0 0
123 1 1 0 671.8999303428299 653.4502104036056 640.7094570972401 0 0 0
124 1 1 0 641.0437165333188 685.2449596787026 659.5465463030422 0 0 0
1142 1 1 0 640.1668512560933 675.5520369494384 639.7682666886362 0 0 0
126 1 1 0 647.1522110650387 645.6630832244022 678.7212802252845 0 0 0
127 1 1 0 641.7841952742375 643.3967889832259 640.8079313325945 0 0 0
128 1 1 0 641.6916265268355 642.2588339218738 681.9686088924128 0 0 0
129 1 1 0 648.2155866119915 660.2063158525788 650.132559887184 0 0 0
130 1 1 0 653.1800215821486 683.0653696144843 645.1036062493183 0 0 0
131 1 1 0 647.5752027466621 649.4360334538418 674.466517901958 0 0 0
132 1 1 0 647.3848654216706 670.6028416243616 675.255450703727 0 0 0
3190 1 1 0 686.1890445913411 676.2286804414765 674.9776035160191 0 0 0
134 1 1 0 643.1614792725426 672.7743026168947 676.638791613539 0 0 0
135 1 1 0 684.0299435174234 684.2063166599164 679.4446719691551 0 0 0
136 1 1 0 642.9170264798107 641.4422168670784 683.7277000270246 0 0 0
137 1 1 0 664.6257528074041 664.2122414277615 685.4587267241044 0 0 0
138 1 1 0 644.7638380090135 680.1251391763934 670.2603003423304 0 0 0
139 1 1 0 666.4548824133906 653.9330931297889 641.5449930560046 0 0 0
140 1 1 0 642.3575298604685 676.2328838248221 640.8759555668425 0 0 0
141 1 1 0 642.2469139968163 660.5168088407128 644.0250114357597 0 0 0
142 1 1 0 653.4401241526822 643.3796270876576 676.6647704222096 0 0 0
143 1 1 0 647.5861494538342 671.754119642299 676.1704907690047 0 0 0
144 1 1 0 645.2567397024495 643.8040903545667 676.1299997490564 0 0 0
145 1 1 0 645.6649992936909 672.4304940281363 674.9339956108802 0 0 0
146 1 1 0 644.9428046364046 684.5118351633896 672.3811281781725 0 0 0
147 1 1 0 646.3060888930393 673.3818429533218 682.6240850693451 0 0 0
148 1 1 0 648.930034003262 648.9905004108289 676.5940820363373 0 0 0
149 1 1 0 646.8244823733255 647.8519837646253 677.3230088223842 0 0 0
215 1 1 0 686.0099772313055 644.1819671887508 653.6358259634064 0 0 0
151 1 1 0 679.744116840396 668.2843908071724 641.5417744940842 0 0 0
152 1 1 0 651.1462267953606 682.7267444396582 659.7903386868581 0 0 0
153 1 1 0 649.8986277095108 660.6351736829888 645.4118966729822 0 0 0
154 1 1 0 649.2822546045333 640.3648061178557 680.4599212017926 0 0 0
155 1 1 0 685.956858905026 670.9516428087887 672.8124559020621 0 0 0
156 1 1 0 684.6368957630983 643.2313977609883 664.9168190632696 0 0 0
157 1 1 0 682.122153184866 641.4750805448266 674.7030260262283 0 0 0
158 1 1 0 646.1230102197188 666.6196678489393 685.1363031849468 0 0 0
159 1 1 0 651.3817691945798 644.9100568226935 677.2072092464085 0 0 0
1097 1 1 0 674.22534899257 640.2732475914999 657.6878875592174 0 0 0
161 1 1 0 653.8007972189223 660.118392258997 639.9542638585789 0 0 0
16252 1 1 0 639.4934977438285 665.1687652455854 682.3269774049359 1 0 0
163 1 1 0 651.1286174497627 683.4918303663735 652.4666126126477 0 0 0
164 1 1 0 640.7734093621281 643.182002410304 675.6005281746457 0 0 0
165 1 1 0 684.2173238138254 643.8024620955879 673.360543959506 0 0 0
166 1 1 0 671.643500009716 685.2425871971774 660.4232561139503 0 0 0
167 1 1 0 659.9081886028412 683.1390738382923 641.7209355608593 0 0 0
168 1 1 0 655.361646644684 650.0783862520137 683.7942515172923 0 0 0
169 1 1 0 648.4393601959813 681.2079397585201 661.0985768364144 0 0 0
170 1 1 0 663.9843671388546 644.6423396103964 661.1562143996335 0 0 0
171 1 1 0 643.9996703784076 641.6959301931364 676.2917906921907 0 0 0
172 1 1 0 683.4244885710434 643.3479587303127 665.6513604186243 0 0 0
11089 1 1 0 643.9679297831299 686.5884265908365 674.0520881726171 0 0 0
7825 1 1 0 656.0330722111975 654.1357527400381 640.3232977989073 0 0 1
175 1 1 0 647.2080300922919 644.6989250447081 679.906399475263 0 0 0
3777 1 1 0 679.4757634928724 683.0146789698845 640.3476345995766 0 0 0
177 1 1 0 645.9145748807146 665.4199235485343 685.8191418806198 0 0 0
178 1 1 0 647.2326146003404 665.8178381032565 640.4068116813086 0 0 0
179 1 1 0 685.5907432810288 676.3556794319234 656.9170453474702 0 0 0
180 1 1 0 643.162352667343 640.9536723824716 678.415207790334 0 0 0
181 1 1 0 649.8387153646892 672.6347505675911 643.5733628376205 0 0 0
182 1 1 0 660.1988257279693 644.3501909466057 658.8900199325176 0 0 0
183 1 1 0 681.6416099938633 670.0722997406381 684.9651284576444 0 0 0
184 1 1 0 650.3550621235227 660.4199319742409 649.2193668656026 0 0 0
10732 1 1 0 680.3559688749957 639.8116779707274 681.2920179403181 0 1 0
186 1 1 0 658.6987214804057 683.3419150388752 642.3650945433942 0 0 0
187 1 1 0 667.7655671581219 683.5555079132187 668.6124753527941 0 0 0
188 1 1 0 675.8379673517502 685.3487597968273 659.1260594736381 0 0 0
189 1 1 0 641.3927370482847 659.2423779106347 658.6382566374532 0 0 0
190 1 1 0 655.8831291884203 676.8194582229851 643.5407910861012 0 0 0
191 1 1 0 659.3919042010324 643.5211718528518 658.0150018535583 0 0 0
192 1 1 0 646.2725741804345 684.205892965612 668.0000465311139 0 0 0
193 1 1 0 643.4404030500846 640.634007302069 677.0820104075649 0 0 0
194 1 1 0 681.7041723436336 667.2608569578922 650.8296729770933 0 0 0
195 1 1 0 645.0710245936502 681.8437199177515 675.9042709299353 0 0 0
2169 1 1 0 673.6511384251829 686.5008600983921 659.8338922473561 0 0 0
197 1 1 0 646.0652637087159 644.2578431989102 680.5882389753655 0 0 0
198 1 1 0 674.0835220557668 642.0061850684657 660.3875295048402 0 0 0
199 1 1 0 644.5709783271615 644.718513918847 679.9064001641159 0 0 0
200 1 1 0 650.312924557904 642.0779056771225 679.2046890653285 0 0 0
17668 1 1 0 639.500805999339 661.47531648051 651.4609814913512 1 0 0
202 1 1 0 670.4085216249341 673.1027657714391 643.019388660857 0 0 0
203 1 1 0 649.5515948934426 670.0864129174474 678.7675110000846 0 0 0
204 1 1 0 650.8170498766578 675.5636603293541 684.8815923619761 0 0 0
205 1 1 0 644.6955626571503 683.3920536309511 675.7099417753033 0 0 0
9879 1 1 0 676.6686893173181 639.8844230736557 681.7211882648701 0 1 0
7824 1 1 0 679.7899466439375 661.3232367902824 639.8898299755134 0 0 1
2081 1 1 0 682.9158191039899 682.4456175112451 640.0466531945304 0 0 0
3669 1 1 0 639.3881723293066 650.8372235277915 670.641320273403 0 0 0
210 1 1 0 642.1365340613548 641.4122684202786 674.8508271018927 0 0 0
7847 1 1 0 653.6277907507227 666.4641782105834 639.8668516775842 0 0 1
961 1 1 0 662.9887401630214 665.582254188522 686.4487989473162 0 0 0
213 1 1 0 667.6536196895877 653.4680046251427 642.0508243737816 0 0 0
100 1 1 0 686.1062809067173 674.0917203568707 656.599727104656 0 0 0
3720 1 1 0 639.5980024228287 677.0656814434576 640.2125320143014 0 0 0
216 1 1 0 658.2751610800614 661.3218657993765 685.814517881077 0 0 0
19445 1 1 0 686.2823593977332 683.6319059304809 648.8670002243166 0 0 0
218 1 1 0 667.6997585437294 653.769541173269 643.4128076563194 0 0 0
219 1 1 0 666.9725599212943 654.936198393648 643.7753037782593 0 0 0
220 1 1 0 668.7982220557722 653.5505923378508 641.1459092579747 0 0 0
221 1 1 0 669.7639348598752 654.5242553365539 641.3918633138262 0 0 0
7829 1 1 0 671.0281982709778 654.1409603292406 639.8026363815379 0 0 1
2136 1 1 0 639.6014830413948 680.936208305217 649.6477905082603 0 0 0
224 1 1 0 643.5136372399974 682.2165921929254 675.9115543951385 0 0 0
225 1 1 0 666.1329440171609 685.8389251016243 664.3199234176409 0 0 0
226 1 1 0 683.2839305025074 667.1932624164547 646.8834721882156 0 0 0
227 1 1 0 641.2597382047446 641.0431592649064 679.9345911519474 0 0 0
228 1 1 0 642.9162849137086 642.7956139816317 680.0118073055111 0 0 0
543 1 1 0 672.670714174614 686.6268348617521 675.99835906864 0 0 0
230 1 1 0 660.8354451308826 685.9292331132895 640.2181671753611 0 0 0
231 1 1 0 643.4321228853237 670.5285041336622 678.11230161157 0 0 0
232 1 1 0 644.9003542115657 676.0769782034217 678.5274623977942 0 0 0
212 1 1 0 639.8969268434731 666.2622394603932 681.4345814162366 0 0 0
234 1 1 0 640.5327912573539 641.6600253387038 682.5560512163771 0 0 0
235 1 1 0 640.804086427219 641.9388810346766 674.7602558731661 0 0 0
236 1 1 0 647.2340365123371 642.1732414407264 681.2240490750994 0 0 0
11988 1 1 0 668.9584566501728 685.8534925772367 642.6857088197467 0 0 0
238 1 1 0 681.0912978108116 646.3534355863285 685.0326698804571 0 0 0
239 1 1 0 676.710949669817 640.9730366939841 684.6998551012446 0 0 0
240 1 1 0 656.2971591983735 662.616159283621 685.5540110222847 0 0 0
241 1 1 0 685.410273876353 676.0298685464973 676.4223636488964 0 0 0
242 1 1 0 656.6901749940839 664.9612245521766 684.95495262072 0 0 0
243 1 1 0 677.8472421983979 683.9881313159938 658.4179886563302 0 0 0
244 1 1 0 658.0095384659918 684.5702350997913 642.1847084337353 0 0 0
245 1 1 0 681.623633887934 674.8076258838189 685.1075858161287 0 0 0
246 1 1 0 643.8081456993729 682.0071296566857 672.269174826818 0 0 0
247 1 1 0 651.3278600411188 643.6320800089438 677.7308028416145 0 0 0
248 1 1 0 668.0741478727128 660.6396496932862 680.7092511903327 0 0 0
249 1 1 0 640.8649342518979 668.6391835552012 675.977743651399 0 0 0
897 1 1 0 640.5755976386273 639.779945059162 673.4427326519856 0 0 0
251 1 1 0 683.0911829261614 676.3430677772776 656.9884693336769 0 0 0
252 1 1 0 668.9989894592994 658.5865287819131 649.3144276334386 0 0 0
253 1 1 0 669.1810119652826 657.1873439119078 649.0124300392342 0 0 0
254 1 1 0 669.5055894669863 656.6382114903272 646.7448004973753 0 0 0
255 1 1 0 670.1168316871167 656.9931190056167 647.9578789895288 0 0 0
256 1 1 0 670.200099533854 659.1601310038845 649.7285855907267 0 0 0
257 1 1 0 671.3621336318133 658.8129677596966 648.9777236065021 0 0 0
258 1 1 0 672.3675100446318 659.7846708244115 648.8823582075307 0 0 0
259 1 1 0 671.247849665116 657.820691507598 647.9963416858577 0 0 0
260 1 1 0 672.020816280998 657.926626369188 646.7761860924504 0 0 0
261 1 1 0 673.230856873478 659.7840244543169 647.7532125391203 0 0 0
262 1 1 0 672.992132553369 658.9833666499161 646.6507696974162 0 0 0
263 1 1 0 674.1263044862517 660.8694034850943 647.5868886701855 0 0 0
264 1 1 0 674.9350360058063 660.9844759269623 646.4491780093451 0 0 0
265 1 1 0 676.043453252237 662.8904348961228 647.4864035311475 0 0 0
266 1 1 0 675.9083622221888 662.0163786253688 646.4048577915602 0 0 0
267 1 1 0 670.2266465984121 656.6990176106954 645.5114818986518 0 0 0
268 1 1 0 669.8460071239704 656.4350616738027 644.1373570492106 0 0 0
269 1 1 0 671.4988949361822 657.4196766424451 645.5710368964458 0 0 0
270 1 1 0 672.2026658418092 657.6260088976949 644.3813180055668 0 0 0
271 1 1 0 673.5572820598532 659.2928455589048 645.3859272728645 0 0 0
272 1 1 0 673.0098636503909 658.7148369841392 644.2486719888253 0 0 0
273 1 1 0 674.5157562823421 660.3116166093417 645.3381319276313 0 0 0
274 1 1 0 675.1947777832758 660.5674396397105 644.1608428483755 0 0 0
275 1 1 0 676.6906952142675 662.2032243649202 645.2551531358195 0 0 0
276 1 1 0 676.4088867108484 661.3471181288705 644.1578902397313 0 0 0
277 1 1 0 670.8665938829685 655.9043820871667 643.2891355532626 0 0 0
278 1 1 0 670.8509650739092 654.7635466958812 642.4152595584223 0 0 0
279 1 1 0 672.0533586944478 656.6395886553316 643.3908726511496 0 0 0
280 1 1 0 673.0393957416385 656.5682253455958 642.4461671197807 0 0 0
281 1 1 0 673.4091597888853 659.0406520405244 642.7973030536106 0 0 0
282 1 1 0 673.7662892585842 657.712647562503 642.14225712944 0 0 0
283 1 1 0 674.7464941691773 659.9343881889263 642.9724148511615 0 0 0
284 1 1 0 675.6841791670731 659.8297961032468 641.9912815251316 0 0 0
285 1 1 0 677.1545481211335 661.4581201703518 643.0302526463637 0 0 0
286 1 1 0 676.7825741276539 660.6931381190386 641.9318929360243 0 0 0
287 1 1 0 672.14500405887 654.39719480719 641.8286139326354 0 0 0
211 1 1 0 648.7898572306996 686.4154218705354 655.4776196781736 0 0 0
289 1 1 0 673.1773374650746 655.4249289895894 641.6783242142064 0 0 0
316 1 1 0 661.6268914110203 662.3262306743012 686.686802818767 0 0 0
291 1 1 0 674.6468080062311 657.7649287583257 641.0885442871205 0 0 0
292 1 1 0 666.8966039907211 680.8425675175787 640.9744896645306 0 0 0
293 1 1 0 675.5356044598612 658.8630099263981 640.9913409341831 0 0 0
294 1 1 0 643.1038919743007 643.6784800486226 675.1915816523567 0 0 0
295 1 1 0 677.6864716252909 660.7238375525892 640.8831432579113 0 0 0
296 1 1 0 651.3381018952593 641.2105549375378 678.8232867915239 0 0 0
297 1 1 0 681.7126462238463 666.0875976465318 672.8056177775719 0 0 0
298 1 1 0 670.2460100852952 685.4760260576658 674.7603302444601 0 0 0
299 1 1 0 646.4519626181485 660.9081791920889 644.302382783145 0 0 0
300 1 1 0 673.8880252738224 663.0553545747124 642.1666385844701 0 0 0
301 1 1 0 645.8001610768449 680.2501761354326 665.2601218118682 0 0 0
302 1 1 0 639.6350492062936 647.5033396702686 678.0193563181002 0 0 0
303 1 1 0 643.8605473919295 643.1509222676381 682.1323699092725 0 0 0
304 1 1 0 676.292475669112 664.8523247844555 644.858116099121 0 0 0
305 1 1 0 669.4241629660966 684.5975081124059 674.1386330333448 0 0 0
306 1 1 0 640.3878525970372 682.0660361796042 651.689115277723 0 0 0
307 1 1 0 649.3587926088247 646.6467528378097 676.190258954012 0 0 0
308 1 1 0 645.3147755808229 680.5298665892178 676.0815744776853 0 0 0
1377 1 1 0 660.3328555068441 639.865838121409 668.9609904800076 0 0 0
310 1 1 0 646.096780245552 643.006407904063 681.3144852582827 0 0 0
3778 1 1 0 671.2318276117761 683.2267768189625 640.2123351936876 0 0 1
366 1 1 0 651.5162687459144 640.0362432590148 679.5703330248147 0 0 0
313 1 1 0 684.7724452921636 643.6822183955368 663.5838365456666 0 0 0
314 1 1 0 648.3270256104153 680.8467831577765 658.6339141203275 0 0 0
315 1 1 0 659.7457533021296 641.6131302213338 656.4027862983197 0 0 0
1173 1 1 0 669.4544234515506 686.1920100277873 660.9550633283897 0 0 0
317 1 1 0 645.0600680419815 649.3858504059942 675.4611578333725 0 0 0
318 1 1 0 654.8563314372824 655.8913691178356 641.5800195128732 0 0 0
319 1 1 0 644.4454172222637 669.4709948000974 677.5564006026475 0 0 0
320 1 1 0 683.0481342436628 683.3728169422374 652.7797201235794 0 0 0
321 1 1 0 649.2023580708216 672.5775422648143 681.6403172145376 0 0 0
322 1 1 0 681.7596723105331 679.6323189825272 656.0827769690919 0 0 0
323 1 1 0 647.512802948489 669.3271495985819 677.3989932132091 0 0 0
324 1 1 0 654.246554133056 674.5871415951979 643.4168714488748 0 0 0
325 1 1 0 668.192413017519 683.8361867325129 672.1704989846071 0 0 0
326 1 1 0 641.3338446584258 670.9477552494217 675.5852616602696 0 0 0
327 1 1 0 682.0836031507497 643.3344993009324 654.6446615707367 0 0 0
328 1 1 0 641.804773020045 659.6613759322302 649.2812427704359 0 0 0
329 1 1 0 646.3808911948543 676.1491914473168 640.1484065043 0 0 0
1253 1 1 0 660.5508111616772 664.8561557130438 686.5941824773469 0 0 0
331 1 1 0 644.3919795133371 671.7532161362299 674.8595537990972 0 0 0
332 1 1 0 641.3841309939462 671.2018394589305 677.0595239431082 0 0 0
11972 1 1 0 683.4189919742106 639.9503010505014 670.4522029731497 0 1 0
334 1 1 0 644.5865449995541 679.6956573486606 675.1064063903186 0 0 0
335 1 1 0 642.1325911140353 684.9713653934665 674.727119744036 0 0 0
336 1 1 0 678.1700761887009 663.7479116726458 646.589040102321 0 0 0
337 1 1 0 677.7001751680647 663.4512104518284 645.1669940165432 0 0 0
338 1 1 0 678.6452439372705 663.5192964985064 643.8805013210332 0 0 0
339 1 1 0 680.430661142967 664.1803740460365 645.6189656461133 0 0 0
340 1 1 0 680.0830052739369 663.3917589302623 644.3788562486875 0 0 0
341 1 1 0 681.8417248444824 663.6387278102634 645.9932330768719 0 0 0
342 1 1 0 682.7995201092573 663.1982515683819 645.0799845512425 0 0 0
343 1 1 0 684.1159544355362 662.9273317553981 645.5321709223126 0 0 0
344 1 1 0 678.3085828431266 662.3019249735761 642.9985269327148 0 0 0
345 1 1 0 679.3128587489146 662.0917792177319 642.0461705316053 0 0 0
346 1 1 0 681.0338060013364 662.9544848712125 643.5073175612156 0 0 0
347 1 1 0 680.6546464061153 662.3726310497335 642.2652655242215 0 0 0
348 1 1 0 682.4004968819763 662.8613645031331 643.7976433085629 0 0 0
349 1 1 0 683.3023276318877 662.1364772120271 643.046813294782 0 0 0
350 1 1 0 685.0829142479655 662.3487246787674 644.6771610515112 0 0 0
351 1 1 0 684.617896930227 661.8996099358553 643.4393457409417 0 0 0
311 1 1 0 639.4612712724256 644.0459439926606 640.1218700579304 0 0 0
353 1 1 0 666.9094702510907 678.7543535815637 642.0856446652085 0 0 0
354 1 1 0 647.0808443355282 682.5491180302283 643.687359885159 0 0 0
355 1 1 0 652.6000115601095 661.503806272036 645.4349901371451 0 0 0
356 1 1 0 678.8650846556825 661.4333013737267 640.895352241276 0 0 0
357 1 1 0 657.5313199502626 640.2117709767471 680.3304284234673 0 0 0
358 1 1 0 681.5916945035568 661.8545307262447 641.3402335703573 0 0 0
1205 1 1 0 655.3682208944745 640.106764873504 682.9814647382391 0 0 0
360 1 1 0 682.9088391819766 661.7130626170109 641.7248869552527 0 0 0
361 1 1 0 683.7176165103984 660.892249348081 640.9692538628476 0 0 0
362 1 1 0 685.3486209969168 660.8720252821583 642.7431552553361 0 0 0
363 1 1 0 684.9247435755598 660.4626102717348 641.5043183202906 0 0 0
364 1 1 0 639.8471790795506 660.9781724618383 648.8355061823636 0 0 0
365 1 1 0 644.3389601499649 661.2171062277254 640.6351440735003 0 0 0
3677 1 1 0 649.6619811164121 686.3394534241978 654.3652978111907 0 0 0
367 1 1 0 642.2879995592116 655.1446678805921 651.3670568464745 0 0 0
368 1 1 0 645.3172705405536 643.9226707997414 678.7385110468468 0 0 0
369 1 1 0 641.0475929974422 658.8099648824416 648.4412314772921 0 0 0
370 1 1 0 684.5649476302183 646.4069501616538 681.4031071969014 0 0 0
371 1 1 0 654.6252874264809 665.7937846558389 684.2816278886112 0 0 0
372 1 1 0 685.1871579866022 667.7343498364893 651.2989636756222 0 0 0
373 1 1 0 645.7203608230482 681.4903682014773 667.7764297593353 0 0 0
374 1 1 0 684.2081886651481 679.9010631659518 655.3574804068238 0 0 0
375 1 1 0 640.7975232533398 651.5803846297173 652.9987262088415 0 0 0
376 1 1 0 685.4747413311615 659.2776114800307 640.9953858037303 0 0 0
3703 1 1 0 666.7804461032179 640.1414262038478 664.8563961074422 0 0 0
7954 1 1 0 683.3388575368293 640.593849930064 672.4271120590448 0 1 0
3492 1 1 0 672.2121972177288 686.5152237619646 660.2178113945808 0 0 0
380 1 1 0 643.6303551728186 660.336571003871 644.0658205488015 0 0 0
381 1 1 0 652.0409705021441 673.5784799752389 643.6980516700606 0 0 0
382 1 1 0 679.4979466725147 644.7918707757516 685.837151853283 0 0 0
1273 1 1 0 683.306173767033 660.4092329568477 639.7036413373145 0 0 0
384 1 1 0 647.0975507011501 681.5876937324414 661.5010054241005 0 0 0
385 1 1 0 681.9548732600555 663.8421161934068 673.6774848847938 0 0 0
3030 1 1 0 680.5650043324555 686.2007841549191 655.8947046279842 0 0 0
387 1 1 0 643.5809921008497 642.1911219001378 678.9328795115266 0 0 0
388 1 1 0 650.8969441518927 683.0408902739752 651.1074760641636 0 0 0
389 1 1 0 684.2394531176795 640.6156189332546 652.4666095345692 0 0 0
390 1 1 0 639.8886495723101 640.989733872293 674.0284805635466 0 0 0
391 1 1 0 644.621639121185 664.8979685806139 685.7602085258911 0 0 0
4015 1 1 0 677.6492157804676 672.5594364518203 641.4150016305314 0 0 1
393 1 1 0 648.3196546887965 642.6144724964619 680.4933283147343 0 0 0
394 1 1 0 645.0474438403246 663.9378765955709 642.9087110182852 0 0 0
395 1 1 0 645.0165875411004 679.5180370090945 669.0009047404143 0 0 0
396 1 1 0 648.5398698376711 660.3336689103602 645.3751639753426 0 0 0
397 1 1 0 674.5157959308663 685.3294537430963 659.6382693254327 0 0 0
398 1 1 0 680.3063957799362 667.9953537352849 683.5714189459751 0 0 0
399 1 1 0 648.6668142712954 670.1748459923369 677.5747517885582 0 0 0
400 1 1 0 657.6443634274626 641.9634868828721 662.7831473774621 0 0 0
401 1 1 0 682.2890764697911 670.2429875429706 676.7957396322291 0 0 0
250 1 1 0 649.4881947419742 665.8617372686907 639.9005698737133 0 0 0
403 1 1 0 665.3040486827979 685.4623010630005 662.0425321003337 0 0 0
404 1 1 0 655.7928515899287 650.1877106794363 682.447853473281 0 0 0
405 1 1 0 643.5303777396141 673.7999146860147 640.6151346758717 0 0 0
406 1 1 0 644.2377371686542 674.7667140904813 641.3031454235927 0 0 0
407 1 1 0 646.5461396689656 675.7068546537182 641.6502657044404 0 0 0
408 1 1 0 683.4801583296107 641.8911394385322 668.1565876028224 0 0 0
409 1 1 0 640.28690959664 657.7781250526557 646.4962611927739 0 0 0
410 1 1 0 669.8461440847265 644.5577661785966 661.1292823994916 0 0 0
411 1 1 0 684.7032398514672 674.8117258936378 676.7470851881164 0 0 0
412 1 1 0 644.502360241529 677.8098956725081 676.8795024243836 0 0 0
413 1 1 0 659.3572685605969 643.6158274940809 662.3778920622676 0 0 0
414 1 1 0 684.1200911824138 674.0585725401277 675.6648532391604 0 0 0
415 1 1 0 681.5109146347834 669.1783352926192 677.3210612821663 0 0 0
416 1 1 0 684.2651784592063 648.3086667455594 682.9596295967458 0 0 0
417 1 1 0 651.1232545825897 679.9181649520308 659.6526052501962 0 0 0
418 1 1 0 680.7576978289476 675.8983110469675 683.0503722940889 0 0 0
419 1 1 0 684.3008201351008 643.7204992658085 669.2022204829456 0 0 0
420 1 1 0 640.7511593507311 668.4055470933487 679.7486689118766 0 0 0
421 1 1 0 643.4075560326477 644.0008827000261 680.7938593749087 0 0 0
422 1 1 0 645.1897923198568 672.1669942579413 641.5086462193825 0 0 0
423 1 1 0 651.7850570711662 661.5121448154886 646.5801925401148 0 0 0
424 1 1 0 648.4028913285945 643.9598324177377 680.0525022487673 0 0 0
425 1 1 0 685.3006748321529 683.2896285604402 642.643082011123 0 0 0
426 1 1 0 640.5754643870282 640.9745453078391 683.7591599859282 0 0 0
427 1 1 0 680.1694603680103 666.8893662260272 670.7339663437922 0 0 0