LAMMPS data file via write_data, version 2 Aug 2023, timestep = 50000, units = metal

28292 atoms
1 atom types

634.3094397237926 734.1245602762087 xlo xhi
634.6146125883672 734.5283874116135 ylo yhi
634.6492336915928 734.4937663083879 zlo zhi

Masses

1 12.0107

Atoms # full

1 1 1 0 659.4209635432139 635.9952680922006 680.8670623385239 0 0 0
2 1 1 0 645.6225659784282 639.7462429025899 637.9612097750102 0 0 0
3 1 1 0 635.8144552398046 660.2321643026044 655.1150085010543 0 0 0
4 1 1 0 643.0901196555877 640.2946006439353 637.117842356143 0 0 0
5 1 1 0 660.2984133389755 636.0040213354306 678.2485552941882 0 0 0
6 1 1 0 641.9489932433431 640.2104071101146 636.3311308855767 0 0 0
7 1 1 0 669.9887638317817 639.6866315699597 657.1382210325338 0 0 0
8 1 1 0 665.1349725008979 636.884477980277 672.1878662040436 0 0 0
9 1 1 0 640.3078734964165 679.6258818369939 662.9270995816391 0 0 0
10 1 1 0 644.5587768709464 639.2344859001679 638.79473763988 0 0 0
11 1 1 0 644.5307095699002 638.3810155855404 639.9456241909204 0 0 0
12 1 1 0 643.3834122168279 637.9005175133389 640.653090878446 0 0 0
13 1 1 0 643.2331321274769 637.0801448715758 641.8134905298638 0 0 0
14 1 1 0 642.2980406051373 676.6724725943748 683.1898221915686 0 0 0
15 1 1 0 637.7772785818623 660.6366949878076 681.5773789045295 0 0 0
16 1 1 0 642.6408995129283 671.9943539732244 659.6199083921042 0 0 0
17 1 1 0 650.8722340979241 656.6474469172258 638.2749381333122 0 0 0
18 1 1 0 681.4056923873621 675.529036727706 639.3241942089427 0 0 0
3476 1 1 0 635.9758964070862 656.264030478057 684.2629089953776 0 0 0
15953 1 1 0 634.6600120713669 673.0803467482439 650.5843950601502 1 0 0
21 1 1 0 639.7468302596616 667.4363012235672 682.7143599339872 0 0 0
16716 1 1 0 684.1176293523215 682.1294777529467 650.3249975421063 0 0 0
23 1 1 0 650.2865227692698 660.1685000854262 639.5081253634554 0 0 0
24 1 1 0 643.2536125561281 639.6122885091606 638.3412776703924 0 0 0
25 1 1 0 642.1147447057159 639.0532639849513 638.8579537233969 0 0 0
26 1 1 0 640.8334953214986 639.5963708293875 636.8316004132828 0 0 0
27 1 1 0 640.9341386729086 639.2802783281348 638.17856987913 0 0 0
28 1 1 0 663.1839653082407 635.4653577912561 655.0976990823766 0 0 0
29 1 1 0 638.5433938372244 640.107261087068 637.0088471802367 0 0 0
30 1 1 0 651.8585895741595 656.252426035266 637.2924847856615 0 0 0
75 1 1 0 644.1649200156805 634.6550202715674 648.6373084172924 0 0 0
32 1 1 0 642.1765082273695 638.2707041785692 640.0060943330449 0 0 0
33 1 1 0 640.8801247911258 638.1037215957061 640.6760683593177 0 0 0
34 1 1 0 639.7267906668741 639.2122157806028 638.8773924703953 0 0 0
35 1 1 0 639.7984624788345 638.8484033541937 640.2018716267578 0 0 0
36 1 1 0 638.6516194364457 639.8822162333115 638.35985074666 0 0 0
37 1 1 0 637.6610705801143 640.2887063316915 639.3221493655309 0 0 0
38 1 1 0 636.5388658330169 641.3317831048008 637.4729157495631 0 0 0
39 1 1 0 636.6702023957506 641.1801578274371 638.8907824048291 0 0 0
40 1 1 0 634.950622226349 667.5713068015187 643.4168457011453 0 0 0
41 1 1 0 640.8882313456143 637.492957530815 641.8857953836377 0 0 0
42 1 1 0 638.4142075511369 675.4725255411141 662.787668941629 0 0 0
43 1 1 0 638.7845839383895 639.1529104447479 641.0693622953829 0 0 0
44 1 1 0 638.7665082899119 638.5725115037027 642.3033651545569 0 0 0
45 1 1 0 637.779815402088 640.047218951553 640.6686743465286 0 0 0
46 1 1 0 636.7210420649992 640.3461225948662 641.5561721422728 0 0 0
47 1 1 0 635.6708664027688 641.6426178890057 639.7430937619158 0 0 0
48 1 1 0 635.6663358444692 641.1347471570432 641.0785104440398 0 0 0
49 1 1 0 650.8018409380898 638.2478632934545 647.7712910605735 0 0 0
50 1 1 0 659.0769537056224 650.1040303012555 636.7870869571634 0 0 0
51 1 1 0 661.1377199015333 682.0671468672874 647.0197458597055 0 0 0
52 1 1 0 670.6244559954157 674.5009476878349 683.0737711997588 0 0 0
53 1 1 0 637.5238713005798 638.5710242306518 643.0139957472923 0 0 0
54 1 1 0 637.0938376324998 637.4328109075932 643.6982829540012 0 0 0
55 1 1 0 636.5651904507404 639.5296658350218 642.6736450993301 0 0 0
56 1 1 0 635.3379077506548 639.5097393353483 643.244909355013 0 0 0
168 1 1 0 683.5386262229732 642.297780964299 645.9144689589727 0 0 0
17034 1 1 0 683.2918110901804 642.2328268140244 636.060901395701 0 0 0
59 1 1 0 675.2877824102047 683.6013639632674 680.8062771184832 0 0 0
60 1 1 0 653.5788794343957 655.831140132473 638.9393002523839 0 0 0
61 1 1 0 672.3202686585274 668.2186499556541 682.4271906901891 0 0 0
62 1 1 0 674.2338582031974 638.8932163784624 657.9523714573324 0 0 0
883 1 1 0 657.8398328545366 635.1713489791405 649.2770624804648 0 0 0
64 1 1 0 635.7608338700676 637.3042523097154 644.0679940486475 0 0 0
65 1 1 0 652.3314026628219 683.7441613656248 657.4106120589788 0 0 0
903 1 1 0 658.4530185189502 649.7270449110118 635.5960743083124 0 0 0
67 1 1 0 654.4196118296192 661.9701732420506 637.7831037198674 0 0 0
68 1 1 0 655.3213414328575 656.1069810521203 637.4333338613413 0 0 0
714 1 1 0 643.4185618178353 635.6655319737697 647.725577779627 0 0 0
426 1 1 0 659.5703553646846 683.9732606331903 654.2311143884962 0 0 0
71 1 1 0 673.0378550193772 640.3336731660935 652.6593425155327 0 0 0
208 1 1 0 682.5777684703157 657.537597738982 684.4097520075921 0 0 0
73 1 1 0 657.8603390592923 640.6940070345667 649.2694490112227 0 0 0
74 1 1 0 664.3019084281287 636.06094504142 655.7015341737659 0 0 0
3158 1 1 0 681.4948759786646 684.3332939203449 638.5306201497942 0 0 0
76 1 1 0 654.111288609491 654.1685379815424 637.1540838673957 0 0 0
77 1 1 0 658.6142939298793 636.6340931282109 647.4889538455586 0 0 0
78 1 1 0 683.1102791145483 666.4545847002252 666.7290779362479 0 0 0
10378 1 1 0 662.9047740968863 683.845593546339 658.1969172278166 0 0 0
808 1 1 0 659.858614349512 665.9940347713718 635.5423857408035 0 0 0
672 1 1 0 635.0054725888378 677.3805481833069 676.9100043685621 0 0 0
753 1 1 0 683.9873449681188 658.8670639334241 657.0052504481483 0 0 0
83 1 1 0 641.6953074566974 674.0265162009327 660.5195437769534 0 0 0
84 1 1 0 672.6488220560492 635.3828369254062 653.7495646475983 0 0 0
1978 1 1 0 679.673223598411 657.4172348602903 683.7522244969855 0 0 0
1601 1 1 0 634.3468367841622 671.5916039388961 648.6592623664139 0 0 0
87 1 1 0 637.5927545454534 667.534122275701 653.8148295360595 0 0 0
88 1 1 0 639.2970038995792 663.0198388911484 647.9450589109539 0 0 0
89 1 1 0 676.1959737226481 640.2673930946354 650.0470939514634 0 0 0
90 1 1 0 652.8747912661439 658.3989969674791 640.832929806908 0 0 0
10392 1 1 0 654.3150436498632 635.1551412094236 647.4376956161972 0 1 0
92 1 1 0 637.4978381616776 640.8756422141458 636.5347997786207 0 0 0
93 1 1 0 650.5576970600729 660.4525873571865 642.8169250839479 0 0 0
94 1 1 0 655.9449144222556 660.5593660560623 640.5303597537802 0 0 0
6077 1 1 0 682.3973215974611 642.4682473376405 634.9870369995726 0 0 1
96 1 1 0 648.4242810485737 636.2402473245039 651.5107684260729 0 0 0
1961 1 1 0 663.4699473600626 683.797939005367 659.4770363413645 0 0 0
98 1 1 0 649.1121324947828 638.3753695783116 659.9944031822491 0 0 0
99 1 1 0 654.3813097621578 637.6104909159299 648.2343819518483 0 0 0
100 1 1 0 641.2692090829984 639.7377030341863 655.7631430259125 0 0 0
101 1 1 0 635.859511069236 675.6971638849526 683.3382203885614 0 0 0
816 1 1 0 655.1740610526227 667.0787839475161 634.9908994071657 0 0 0
103 1 1 0 659.7172862349157 653.9414228019183 639.7719549694748 0 0 0
104 1 1 0 639.7138419035626 677.3751185621136 663.5659101410741 0 0 0
1401 1 1 0 638.9320210278021 684.1259370491484 662.6559518763713 0 0 0
106 1 1 0 655.1252912070275 647.4608766742028 635.8562275170359 0 0 0
7101 1 1 0 639.7463482275623 640.3127752827166 634.7457255813297 0 0 1
9543 1 1 0 675.610204842699 635.0288805884052 671.729015198094 0 1 0
109 1 1 0 641.3320912219523 639.1266115668766 653.5054509152419 0 0 0
110 1 1 0 671.3058268832945 671.676224677548 681.9798973745611 0 0 0
111 1 1 0 635.9838346637384 679.2467198819495 678.5352409431317 0 0 0
112 1 1 0 661.7883309833949 640.6041057370204 678.9110258164189 0 0 0
113 1 1 0 671.1757710615777 640.2823310893218 655.1026101709707 0 0 0
114 1 1 0 661.2168217213276 637.2453836772506 676.3768359798402 0 0 0
115 1 1 0 660.7549084660021 636.0721626645156 676.9121802297584 0 0 0
116 1 1 0 662.0283613595998 638.76686713658 673.2534905932938 0 0 0
3491 1 1 0 664.0598262274469 683.8326498153929 662.211167435076 0 0 0
118 1 1 0 635.8959883655293 666.2206579209131 641.6077169927177 0 0 0
1051 1 1 0 645.5398363873908 635.404756943966 654.7842239336254 0 0 0
120 1 1 0 682.0795952993402 678.5216601359691 635.4953463226215 0 0 0
3157 1 1 0 680.2617114301679 674.0472740601757 635.2776124458528 0 0 0
122 1 1 0 640.7664832964138 642.060627137113 656.3849539413312 0 0 0
123 1 1 0 654.7478825012889 638.775496911902 648.8627016034902 0 0 0
124 1 1 0 659.8985943390923 652.1610189037415 636.5656579685747 0 0 0
125 1 1 0 637.8900526413101 659.3749729031882 680.9938811772129 0 0 0
126 1 1 0 658.7162863344834 662.0276887137819 638.6102306310908 0 0 0
127 1 1 0 655.7840099130135 639.5471773400687 648.4177150030864 0 0 0
128 1 1 0 657.2114323916537 649.1055027712783 635.6179303538496 0 0 0
129 1 1 0 641.7865560746243 639.6142546712096 657.0210536072902 0 0 0
130 1 1 0 635.4881245575119 662.0312769543131 652.5288570655189 0 0 0
131 1 1 0 653.3894245487594 636.829296339704 648.785876749835 0 0 0
132 1 1 0 677.003542510159 645.7171344431354 656.6060462105661 0 0 0
133 1 1 0 658.0205287385207 661.1598891423133 683.4476341467046 0 0 0
134 1 1 0 657.562622162997 640.4290451294775 646.8993178430657 0 0 0
135 1 1 0 637.7329982897967 665.6078870109676 682.6690859501109 0 0 0
136 1 1 0 658.5752238582319 635.9444396100971 683.8564995063036 0 0 0
137 1 1 0 645.7237327773474 639.4157658028613 659.7529950574759 0 0 0
138 1 1 0 641.2993012802208 676.3418630064455 682.238927640205 0 0 0
139 1 1 0 649.7875732068347 636.1035833892158 651.3170126370958 0 0 0
140 1 1 0 647.9333201212919 638.2666743101624 661.0844846799148 0 0 0
141 1 1 0 659.3947934271387 663.473983772646 639.0643644012846 0 0 0
142 1 1 0 635.1598600635882 636.0791629678214 644.0137782702109 0 0 0
143 1 1 0 682.4550165608526 676.4151464776667 639.3527522140691 0 0 0
144 1 1 0 640.6298109945967 674.5977133531734 661.1727604905037 0 0 0
145 1 1 0 652.4387734701279 660.304587389561 640.6001230893988 0 0 0
146 1 1 0 638.4814305012902 662.8939980512766 682.1559453120259 0 0 0
147 1 1 0 656.3149932167747 639.3355286653509 646.9055156341886 0 0 0
148 1 1 0 636.9832111098882 674.2813740860265 661.2277420286338 0 0 0
149 1 1 0 652.9754682464012 682.340742976793 658.6712430847164 0 0 0
150 1 1 0 639.230999691986 639.5424725997866 649.7488608969857 0 0 0
151 1 1 0 673.4670095938043 638.3621496415632 667.3118247894945 0 0 0
152 1 1 0 658.4361629738011 640.2629594842393 648.0546074792819 0 0 0
153 1 1 0 665.7027174758268 681.84153117331 635.370496250214 0 0 0
1993 1 1 0 670.9931341465531 684.4174725702289 638.1891319052143 0 0 0
683 1 1 0 655.3034881922151 646.1246255298378 635.4842246077263 0 0 0
156 1 1 0 656.1712247799762 651.8759789551606 636.9951220222653 0 0 0
157 1 1 0 659.4268751260876 662.6878220843292 640.4375180592535 0 0 0
158 1 1 0 674.7454448060788 635.9355228656603 671.1531110222165 0 0 0
159 1 1 0 658.7260584893746 635.6069794691226 653.2622458352741 0 0 0
160 1 1 0 644.0911096036111 673.8461483775261 660.3243525492838 0 0 0
161 1 1 0 648.301120762897 638.1707722286195 657.3927603088558 0 0 0
1597 1 1 0 668.7431882225937 684.1112792191241 673.0671260501337 0 0 0
163 1 1 0 636.7381790355613 664.5947227048661 682.700291012699 0 0 0
164 1 1 0 661.6137268959802 635.9899666856089 674.2607173924973 0 0 0
165 1 1 0 661.872555655871 635.7864470999164 672.7822012204713 0 0 0
166 1 1 0 638.8416762470716 661.4828784023046 681.886661532146 0 0 0
167 1 1 0 635.418196245384 679.6131391309573 668.8852175019395 0 0 0
3518 1 1 0 642.7942128983157 670.5161427182304 683.4846048645246 0 0 0
169 1 1 0 672.3202709394338 664.5971025039685 682.7941470660677 0 0 0
170 1 1 0 640.3318896521353 681.7076157755206 679.2722002720424 0 0 0
2002 1 1 0 649.2088786909926 667.0795981381971 634.9885116928806 0 0 0
172 1 1 0 640.0680599280372 666.0992242651628 682.8958478957823 0 0 0
173 1 1 0 636.4790503215979 660.9783657039366 682.0733332981459 0 0 0
174 1 1 0 667.6581217904395 639.3827353868603 657.6877303114703 0 0 0
175 1 1 0 665.6332234146768 635.5050327130233 672.9535923107175 0 0 0
176 1 1 0 635.6644419169724 663.7228301809037 650.7634056653366 0 0 0
177 1 1 0 635.8022586388004 665.4008723478498 648.8813798794231 0 0 0
1612 1 1 0 658.2895375790594 660.4284430006229 635.0301526084648 0 0 0
179 1 1 0 673.0786377362579 642.3219799442086 660.0216294690836 0 0 0
180 1 1 0 675.9823353938878 643.4988072592118 655.88019261525 0 0 0
181 1 1 0 648.8603928075141 662.8007061286743 639.1006382368457 0 0 0
182 1 1 0 674.5575574474867 643.5321589931173 658.4250279061663 0 0 0
183 1 1 0 638.9846075354553 663.4427117885427 645.4265496448896 0 0 0
16724 1 1 0 634.587029490214 635.0147968911895 647.8134361125506 1 0 0
185 1 1 0 674.2128758298181 641.2507524904601 658.1260146857865 0 0 0
186 1 1 0 673.243547765014 643.6437920243591 659.1958148985076 0 0 0
187 1 1 0 673.4890550907986 641.1715184035132 659.3420361303234 0 0 0
9075 1 1 0 645.699809157399 635.7759091644033 639.1036024611451 0 1 0
189 1 1 0 636.1760669766608 669.7164953628405 649.7536423571352 0 0 0
190 1 1 0 674.2327404735566 641.9451519040863 654.1473598568834 0 0 0
191 1 1 0 638.2738455390025 664.042733183444 644.3711729550963 0 0 0
192 1 1 0 672.4717424850871 643.3370766071444 662.1059175987509 0 0 0
193 1 1 0 637.6533753080433 669.3879190659885 657.151564708531 0 0 0
297 1 1 0 647.1202454018497 684.2963835018539 683.3438222109052 0 0 0
195 1 1 0 649.2290573169845 638.634585352289 642.1371436317178 0 0 0
196 1 1 0 636.9549785663012 657.9618677103333 677.4312227524148 0 0 0
197 1 1 0 635.918607908043 670.9514858171867 650.3795063637393 0 0 0
198 1 1 0 655.8115909269466 659.578870990205 642.5617582950243 0 0 0
199 1 1 0 651.143654572306 658.124869433631 642.5975421258713 0 0 0
200 1 1 0 652.1510445337462 657.3640509881376 641.9031210673668 0 0 0
201 1 1 0 647.6785338341252 636.5740034768638 650.3806004612288 0 0 0
3419 1 1 0 664.3126249427762 664.1518416101821 635.5904213052361 0 0 0
203 1 1 0 635.4378711546226 665.5346818118195 646.4250211851769 0 0 0
204 1 1 0 652.2979617771617 655.635213592303 636.0883369960138 0 0 0
205 1 1 0 661.375970265858 652.8379031512216 644.3635289172393 0 0 0
206 1 1 0 644.1389207643465 641.0102604816301 636.496707199783 0 0 0
207 1 1 0 665.6672463306994 673.0143245535396 635.9431341052126 0 0 0
771 1 1 0 657.6307030165482 635.0878016714993 650.7147456621583 0 0 0
209 1 1 0 676.1261934999591 641.3345641897997 650.9657217127964 0 0 0
210 1 1 0 636.7388915262518 669.9235102481929 652.7062109121961 0 0 0
211 1 1 0 675.1471054889772 641.2803195913319 651.9717875580757 0 0 0
4118 1 1 0 635.9533363600985 668.4592094646428 684.1935429456043 0 0 0
213 1 1 0 638.150753449126 679.9363364906358 665.7581857715093 0 0 0
551 1 1 0 640.332697424963 635.3855361189322 643.6503569769384 0 0 0
215 1 1 0 663.7457221322204 682.4676822148148 636.537162611778 0 0 0
216 1 1 0 673.7467834018174 638.7831966432682 659.2210593315283 0 0 0
217 1 1 0 636.1353596221646 674.742403250078 682.3260605531194 0 0 0
218 1 1 0 634.9150000227304 681.7905716739004 668.8930337330494 0 0 0
219 1 1 0 638.0947433808757 682.7213189123108 677.9003765206273 0 0 0
220 1 1 0 673.3259844526597 663.9461359153819 683.5685589617503 0 0 0
221 1 1 0 659.7555262333664 637.2574509706733 680.2273199556248 0 0 0
222 1 1 0 649.2872200978867 641.3118295492401 658.2812912917649 0 0 0
223 1 1 0 643.423456090443 638.9775666769991 658.5001615624445 0 0 0
224 1 1 0 636.9385520208907 647.3210488405244 659.1728291659458 0 0 0
225 1 1 0 648.1389662258113 636.7429803218329 657.4647121798387 0 0 0
226 1 1 0 646.6900798963252 638.891137914462 660.6456858815725 0 0 0
227 1 1 0 659.0903283470528 638.9817805660233 648.1850927657014 0 0 0
228 1 1 0 635.9790723015313 641.8861374181288 652.4783675351193 0 0 0
229 1 1 0 650.5024147241701 658.7029487550141 639.9802817343602 0 0 0
230 1 1 0 648.966517830757 658.0694426983808 638.7886823450273 0 0 0
231 1 1 0 642.688222491841 638.5546378667495 657.3591184757206 0 0 0
239 1 1 0 634.6320148983078 677.0285247034928 680.9121700760357 0 0 0
233 1 1 0 647.6532469280424 636.1981482716009 656.2519171438165 0 0 0
234 1 1 0 653.2109728504397 661.6020704403506 637.2214694617446 0 0 0
235 1 1 0 638.2910012702929 674.4480246317361 661.7841826803814 0 0 0
637 1 1 0 639.992455707759 634.8977477667138 646.9938895050317 0 0 0
237 1 1 0 682.1749189220585 638.0463950049595 644.1288834534276 0 0 0
10385 1 1 0 646.8519954371715 635.2588348183556 644.6164307128385 0 1 0
907 1 1 0 655.094260969707 680.5357297486654 635.1733056875747 0 0 0
865 1 1 0 634.431065508759 679.5303512567339 673.3489164988946 0 0 0
241 1 1 0 683.1339769990951 640.5180155421122 641.1622632096644 0 0 0
242 1 1 0 658.1549252700072 662.2879340665994 640.9463367335645 0 0 0
243 1 1 0 647.8190911060412 638.2235231519464 655.0585594344343 0 0 0
244 1 1 0 648.5223768185549 640.3559501355719 656.0422195687681 0 0 0
713 1 1 0 682.8223734887899 678.1993009072245 645.9730475816488 0 0 0
246 1 1 0 637.0773435798257 663.2868355598282 682.197997161648 0 0 0
247 1 1 0 645.005177218302 638.6437670481614 658.5394555375063 0 0 0
248 1 1 0 654.7322425952784 637.3926573112765 646.9152691421956 0 0 0
249 1 1 0 680.7166738795986 658.6729849142446 664.8079064506313 0 0 0
959 1 1 0 639.6956372727233 656.2023434196356 684.2238355993466 0 0 0
251 1 1 0 646.8636468766495 664.3367506140705 636.3949395724187 0 0 0
1865 1 1 0 634.3774502919389 650.7419269828088 657.6053074850946 0 0 0
253 1 1 0 675.1378289949139 636.4464129952121 669.9502080025757 0 0 0
17210 1 1 0 684.1354944470671 672.8673957993561 652.9446072988293 0 0 0
255 1 1 0 639.3649062122824 673.925393914387 661.053918079356 0 0 0
256 1 1 0 655.3273741767097 652.190385164331 638.1262921770114 0 0 0
257 1 1 0 636.6972900136028 658.966141912991 680.0249432750946 0 0 0
5657 1 1 0 635.0338357647037 675.3736432127638 684.320235017595 0 0 0
259 1 1 0 681.0591038114607 681.6752414946578 642.1486943915852 0 0 0
260 1 1 0 641.5399116867312 672.8140915099636 659.8106244516014 0 0 0
261 1 1 0 650.5347703997638 636.8973223956011 652.2296759043988 0 0 0
262 1 1 0 646.0466884664484 637.6993956246138 635.2555110513296 0 0 0
263 1 1 0 671.8027601547515 641.4200293124551 654.5494049915035 0 0 0
16267 1 1 0 683.703078700612 684.1101214364218 642.972515256168 0 0 0
265 1 1 0 651.4230960513114 682.8208110771283 658.5049709551115 0 0 0
3122 1 1 0 660.4421796665108 650.1538722521797 635.0627737666434 0 0 0
267 1 1 0 676.9559552348431 637.0340972449314 647.4692183903469 0 0 0
268 1 1 0 656.3050850233377 662.0348857537468 635.9513074845264 0 0 0
269 1 1 0 656.2174173463584 655.2836946376357 678.4790497575667 0 0 0
7794 1 1 0 671.8945040926574 634.8866920888432 677.3773915369511 0 1 0
2004 1 1 0 649.9909775085006 634.9176412824094 666.2320719009223 0 0 0
272 1 1 0 674.6805091878807 642.4301663734568 657.5900856004116 0 0 0
273 1 1 0 655.0223634378134 659.6368304709164 640.2577652141116 0 0 0
274 1 1 0 643.8771699477957 672.4714134466169 660.1138219629067 0 0 0
275 1 1 0 670.2839550638894 642.0463005141502 667.6575533328626 0 0 0
276 1 1 0 656.9152700354814 657.0749006598572 641.0164083050473 0 0 0
277 1 1 0 658.1480662338539 652.2620729966894 640.9715001452372 0 0 0
278 1 1 0 648.146645608282 636.8477738133098 655.0953295761282 0 0 0
279 1 1 0 653.8581439240518 658.9317669277666 638.5151973163584 0 0 0
1381 1 1 0 683.5753051853114 672.4079140168354 651.7275539416546 0 0 0
281 1 1 0 647.3080871519485 636.4912429863657 648.0777626334389 0 0 0
282 1 1 0 640.1682044254333 683.198734992962 662.4563251488868 0 0 0
283 1 1 0 675.0545305626177 680.2061227415153 682.5316831899415 0 0 0
284 1 1 0 651.8406798256138 658.9913224380304 636.2939492018407 0 0 0
285 1 1 0 671.4485731245761 675.9270759977124 682.6037696995439 0 0 0
286 1 1 0 654.5825908919331 655.148028797797 638.1468551379264 0 0 0
287 1 1 0 672.6456390987139 637.066173839275 671.0942230606234 0 0 0
288 1 1 0 659.908463411723 635.639595956855 671.3124399802164 0 0 0
289 1 1 0 678.3395564785806 639.3635896340539 647.1388559930512 0 0 0
290 1 1 0 635.7912371974439 673.4146565461297 659.3977367435931 0 0 0
291 1 1 0 639.8668195039364 640.5196935783616 651.9414109895888 0 0 0
292 1 1 0 660.7877275725734 652.1670561068516 643.311701540456 0 0 0
293 1 1 0 637.1134873298281 653.5463971884743 659.0137533092246 0 0 0
1973 1 1 0 634.9649676424822 680.7105238497704 672.8226659037871 0 0 0
295 1 1 0 643.801061754355 641.2811216998095 659.5254435554543 0 0 0
296 1 1 0 674.9315833153405 641.3283825546973 655.4038168565903 0 0 0
950 1 1 0 634.9714279350668 671.6631744058782 652.6025514981317 0 0 0
19 1 1 0 643.5680701899402 665.7278443897277 635.0536261973555 0 0 0
3490 1 1 0 648.3541465938273 684.5610643356403 684.0258113624108 0 0 0
300 1 1 0 657.9624965738882 663.8721712902707 638.5314124480266 0 0 0
301 1 1 0 659.5111638863062 655.3490679358804 639.4639027231109 0 0 0
302 1 1 0 654.5581660058328 636.13210536166 646.4435886980345 0 0 0
303 1 1 0 638.8964565883329 681.7541402748869 677.2616399839249 0 0 0
304 1 1 0 652.761153638213 655.9011403362559 640.0896134203992 0 0 0
305 1 1 0 656.4052632258716 658.5636224657159 638.8296572496988 0 0 0
306 1 1 0 636.2521926479665 636.5604164092632 646.8183250363169 0 0 0
307 1 1 0 659.002378131651 653.8150246250252 643.0811932307585 0 0 0
308 1 1 0 640.9803293545722 669.0990558491918 656.0585767263283 0 0 0
309 1 1 0 677.1301290867148 640.3762861683355 649.0074722589983 0 0 0
310 1 1 0 640.5381420824972 675.1200853840022 682.4312781580793 0 0 0
311 1 1 0 675.1346733403591 642.1825855161393 653.0006921188684 0 0 0
312 1 1 0 670.9951067345551 667.2113144496877 638.2157751998204 0 0 0
313 1 1 0 644.2847081514943 636.1405843150897 645.4070204095468 0 0 0
314 1 1 0 654.2787066658178 658.7176216524846 641.3167975749762 0 0 0
315 1 1 0 649.3075134111223 657.8825124816403 640.2870909635632 0 0 0
316 1 1 0 659.953401384874 651.5050702075588 639.3222466728894 0 0 0
317 1 1 0 648.5059804484064 662.7897165745152 637.6553437648513 0 0 0
318 1 1 0 641.5483332256892 638.7381449252053 654.8259643688795 0 0 0
319 1 1 0 645.8682343418764 636.1800799956841 658.9192804279353 0 0 0
320 1 1 0 672.9288334595749 641.3183944669113 653.6208230660892 0 0 0
321 1 1 0 640.5895276407441 640.2578944132948 653.1692845127699 0 0 0
322 1 1 0 657.6553869877753 637.8177759900572 645.1515574779929 0 0 0
323 1 1 0 655.6884841372089 655.3309702369531 642.2646937427415 0 0 0
324 1 1 0 664.6215045110677 637.409648720579 682.6230504367292 0 0 0
325 1 1 0 644.1382474298888 636.4344459559028 650.3133746604464 0 0 0
326 1 1 0 645.3698752083193 637.2233452062436 658.1861251046945 0 0 0
327 1 1 0 638.1583614940307 665.0572624197086 642.204475406392 0 0 0
328 1 1 0 656.794207166629 660.8641232917155 639.490145010808 0 0 0
3471 1 1 0 671.6410551639896 670.729075484558 635.2520273020837 0 0 0
330 1 1 0 672.3731147644783 638.2849047321707 651.7121512162944 0 0 0
331 1 1 0 657.4650725228657 652.4694953891709 636.9241816129875 0 0 0
332 1 1 0 671.5675771104957 642.4786997023891 655.50739750826 0 0 0
7885 1 1 0 647.8784017809161 634.7069199079433 681.265693059037 0 1 0
334 1 1 0 673.3246963588629 638.5527336285242 663.236355773271 0 0 0
335 1 1 0 636.3386407166705 649.5565986588357 660.7090838830743 0 0 0
336 1 1 0 639.6834385646638 676.1024164718956 662.8889898020325 0 0 0
337 1 1 0 653.0467983015089 656.7084496662434 637.955260325939 0 0 0
338 1 1 0 651.4656233570582 636.0040735074393 649.5949942399955 0 0 0
339 1 1 0 673.8402049684772 679.506062204603 682.3550671695377 0 0 0
340 1 1 0 657.4431149529584 662.2374914909076 639.6092038090021 0 0 0
341 1 1 0 653.7617411442817 657.9134632126838 637.4222537049558 0 0 0
813 1 1 0 634.5747537517561 660.1002042568535 683.2630852947367 0 0 0
343 1 1 0 656.6519663624705 657.2304820349009 639.6649554340325 0 0 0
344 1 1 0 656.3691092749707 658.0658071949551 637.4151259953916 0 0 0
7641 1 1 0 646.1104936888139 634.7874264924808 642.331077905624 0 1 0
346 1 1 0 669.126397252323 635.1300957500231 677.3278123472267 0 0 0
347 1 1 0 669.5300105879201 636.4197517681608 673.059574808069 0 0 0
348 1 1 0 655.7441140767271 647.9059050791419 637.052548711151 0 0 0
349 1 1 0 658.5180414743528 658.8130128152835 636.8975474716256 0 0 0
434 1 1 0 670.3729972789786 634.882983042555 654.333489372411 0 0 0
351 1 1 0 642.0490057982839 637.4593950666919 655.297941162606 0 0 0
352 1 1 0 655.0535970641341 659.0919286906699 639.0382071657558 0 0 0
1481 1 1 0 675.1084706718622 635.340819250463 663.8318190521283 0 0 0
354 1 1 0 656.6327710629546 648.9596545007329 636.9290818914762 0 0 0
355 1 1 0 650.8234095130676 661.4343505870183 637.3628263302662 0 0 0
356 1 1 0 657.2822722614162 659.8170048622335 638.7583816034816 0 0 0
357 1 1 0 648.7488339669769 660.3563429297147 639.7192343921142 0 0 0
358 1 1 0 683.0459344357802 666.1128761666382 653.196378383905 0 0 0
10371 1 1 0 669.2387839990538 634.670198611876 674.9835410238746 0 1 0
2631 1 1 0 670.6740360272515 672.4458368272713 684.3528738579479 0 0 0
361 1 1 0 671.2504039012543 671.6392949919041 683.3892246825513 0 0 0
362 1 1 0 660.7576605480472 650.5000992928581 639.9327030857935 0 0 0
363 1 1 0 674.3763128119962 640.1335778381327 657.375176078936 0 0 0
2952 1 1 0 653.4013871494427 650.4089401150668 634.8835032394561 0 0 0
365 1 1 0 645.9970473345217 636.4275037757124 640.3345758032261 0 0 0
366 1 1 0 675.6835489879551 673.0942089767861 636.0339932394947 0 0 0
367 1 1 0 658.889042797442 653.4786517026902 640.8400745127032 0 0 0
368 1 1 0 644.1989119274658 636.8716285250504 651.6279493216593 0 0 0
369 1 1 0 652.7049711914364 654.27578630946 636.2390878665536 0 0 0
370 1 1 0 646.182629053824 660.0725953728029 640.6923349793548 0 0 0
371 1 1 0 649.4500530079875 641.5544731527706 637.8437371599406 0 0 0
372 1 1 0 670.1336287123665 638.3790115876878 656.7460700988984 0 0 0
373 1 1 0 639.0867460569578 665.1685362092961 682.6576677602667 0 0 0
374 1 1 0 651.9795711626342 662.4379249791691 637.7650328856307 0 0 0
375 1 1 0 640.0016652978453 643.2060672226966 656.1071516812433 0 0 0
376 1 1 0 637.6306840694756 640.8572832425161 651.047454156401 0 0 0
377 1 1 0 640.9896621203312 666.3544858573298 637.3775802209952 0 0 0
378 1 1 0 668.8843591208761 641.5871233179016 658.1397444558655 0 0 0
379 1 1 0 667.7617378763401 675.9246535653367 669.5087367134001 0 0 0
380 1 1 0 644.3970092875127 676.4839541644143 661.2291746053817 0 0 0
381 1 1 0 675.2521328216274 642.3640573368757 656.2968114565932 0 0 0
382 1 1 0 660.7317638996623 663.7423660028971 638.4123079707666 0 0 0
383 1 1 0 665.2284416484871 639.2648446016885 657.4516670571275 0 0 0
384 1 1 0 672.7454580691908 642.2474486136277 661.3541082667397 0 0 0
385 1 1 0 647.4608743680113 658.2910759035545 641.6275191099496 0 0 0
386 1 1 0 673.3899536405909 639.9038323444797 659.9001826878736 0 0 0
387 1 1 0 636.1092233594024 656.1924053432302 676.0926948819537 0 0 0
388 1 1 0 671.4825474069207 641.6065879948279 665.4977386727882 0 0 0
389 1 1 0 670.6352059489717 640.7433078272603 668.1438476108417 0 0 0
390 1 1 0 669.1462123601195 640.3901414845151 670.1325169066401 0 0 0
391 1 1 0 648.9350860001621 661.677606715517 641.6297432310216 0 0 0
392 1 1 0 646.7341630478469 658.3555654247273 642.823587474189 0 0 0
393 1 1 0 645.4781082216352 659.0247267538957 642.8526091495645 0 0 0
394 1 1 0 647.5846901605825 658.6168391581375 643.9860865798375 0 0 0
395 1 1 0 646.8792293653994 659.4821039932917 644.9728497064932 0 0 0
396 1 1 0 648.3617898584563 661.0843880930773 643.9120810263734 0 0 0
397 1 1 0 647.3152749254679 660.7966134890925 644.8061838798475 0 0 0
398 1 1 0 648.0946768243127 661.9098019348854 642.8035063217106 0 0 0
399 1 1 0 646.8157056644956 662.5267738999605 642.7791623257301 0 0 0
400 1 1 0 644.662748804117 659.2311647458006 644.0706423633009 0 0 0
401 1 1 0 645.4806165500817 659.3512097584684 645.1888966588122 0 0 0
402 1 1 0 646.3597315849322 661.8160030437873 645.0772015982162 0 0 0
403 1 1 0 646.0382086029986 662.6832858687857 643.9475549769124 0 0 0
404 1 1 0 646.1062537545312 662.4270587928985 641.5493440957631 0 0 0
405 1 1 0 643.4402858365243 660.0130422920922 644.0513313079143 0 0 0
406 1 1 0 644.9860054377626 660.1677067627948 646.2343198811601 0 0 0
407 1 1 0 645.3695845675508 661.5424962609526 646.0431191102078 0 0 0
408 1 1 0 644.6741643294039 663.2672803659284 643.8758583953521 0 0 0
409 1 1 0 642.7684905998984 660.258761223193 645.3970996915781 0 0 0
410 1 1 0 641.9546329907756 661.4542856649338 645.5620137717669 0 0 0
411 1 1 0 643.6116374136006 660.0663280613098 646.6392358635254 0 0 0
412 1 1 0 643.290798013283 660.8845285519141 647.7659203913503 0 0 0
413 1 1 0 644.2989909470001 662.5282343274707 646.2231411102357 0 0 0
414 1 1 0 643.6668155153245 662.2456990746858 647.4607258705097 0 0 0
415 1 1 0 643.7417197729814 663.0511006128548 644.9740472352939 0 0 0
416 1 1 0 642.4574431129356 662.661894798849 644.686803447719 0 0 0
417 1 1 0 644.0845298283066 663.418753773752 642.5877745060455 0 0 0
418 1 1 0 642.7791854997148 663.0186717427925 641.9656184480532 0 0 0
419 1 1 0 640.9677641887055 662.5266683302634 644.1796613668895 0 0 0
420 1 1 0 642.264639124984 661.7963532793982 642.4926102472975 0 0 0
421 1 1 0 640.8769104279231 662.0239565153331 642.7991839394401 0 0 0
422 1 1 0 667.7037322854075 677.193674630843 671.6627347469769 0 0 0
423 1 1 0 667.0195334430243 676.3361816099107 670.6857624250573 0 0 0
424 1 1 0 660.2013522954056 637.2352344880777 678.9381904717497 0 0 0
425 1 1 0 654.2516576533358 659.8666144931559 642.5014839715491 0 0 0
747 1 1 0 642.2458851933162 678.0389465277188 683.6755077381723 0 0 0
427 1 1 0 662.7079186339403 640.278428674684 677.855105604404 0 0 0