LAMMPS data file via write_data, version 2 Aug 2023, timestep = 50000, units = metal

28292 atoms
1 atom types

629.9115754763513 738.5224245236332 xlo xhi
630.3444484675158 738.798551532466 ylo yhi
630.3848634965914 738.7581365033905 zlo zhi

Masses

1 12.0107

Atoms # full

1 1 1 0 681.6563804139478 649.6952133206992 632.4067427843314 0 0 0
2 1 1 0 662.2837004185778 634.5771313023815 639.6952083082531 0 0 0
3 1 1 0 638.7326528525107 638.7281512787112 682.4951811605847 0 0 0
4 1 1 0 639.5093170511777 642.5039267185483 678.3027568922107 0 0 0
5 1 1 0 634.3261959668563 633.4513288743831 643.7931002624786 0 0 0
6 1 1 0 639.9643272840915 632.6886023912604 652.8874551305441 0 0 0
9568 1 1 0 653.9450459221731 682.746589661962 678.0139708338282 0 0 0
1176 1 1 0 654.5069152520002 631.2036325777354 651.4299514452322 0 0 0
9 1 1 0 640.3094102628947 664.65295581387 643.7415296741013 0 0 0
10 1 1 0 637.4639960584007 640.9195706526009 675.3764132432042 0 0 0
11 1 1 0 641.2463908508137 642.7608115611258 674.9664446517713 0 0 0
12 1 1 0 638.2532980429522 640.1470357353625 674.4690978157888 0 0 0
13 1 1 0 648.7330047697684 662.206102088607 634.7554370883547 0 0 0
14 1 1 0 639.2681838523788 638.5636931667921 679.44893122281 0 0 0
15 1 1 0 635.0857318265942 636.3720630196607 681.7438158228151 0 0 0
16 1 1 0 634.164366435725 636.3121623229235 680.5390228666307 0 0 0
17 1 1 0 640.3449499216418 643.5585157260138 674.2638922030395 0 0 0
18 1 1 0 635.9509729825734 639.3326933062814 673.6200954973082 0 0 0
19 1 1 0 639.9778408938955 644.806363203243 674.6695575567798 0 0 0
20 1 1 0 631.2219022322294 638.444337785527 645.5190089976462 0 0 0
21 1 1 0 644.5253764704754 670.7867203142675 631.3104702794263 0 0 0
22 1 1 0 635.3320544232208 654.2491976410158 641.8749238097901 0 0 0
23 1 1 0 636.429404400792 641.7459309779517 674.961174117589 0 0 0
24 1 1 0 637.7083420101194 635.0976507369359 676.294704965743 0 0 0
25 1 1 0 639.1911625445504 642.8394215804707 673.5581824893114 0 0 0
26 1 1 0 669.9485688576807 635.5352987240329 677.5313906805004 0 0 0
27 1 1 0 633.8141802420415 667.9622043205611 631.5685022114253 0 0 0
28 1 1 0 673.8587719615873 632.5147406723481 673.9011182383214 0 0 0
29 1 1 0 643.1250515204671 670.001722287061 631.601415110949 0 0 0
30 1 1 0 639.7115207006602 644.9964736582341 676.2649663418852 0 0 0
31 1 1 0 637.2501024979861 634.208523195044 678.555403941741 0 0 0
32 1 1 0 678.926595780849 682.0088121806679 649.4133485215959 0 0 0
33 1 1 0 682.3609159290447 657.9030709285887 636.6352782038726 0 0 0
34 1 1 0 636.2331527128907 636.608044152048 634.5784295909941 0 0 0
35 1 1 0 639.4663485320978 639.7517704919463 677.2030030043793 0 0 0
36 1 1 0 670.5537656607937 633.9302628025481 638.5899748287796 0 0 0
17049 1 1 0 683.8434791310817 653.1911454108938 664.573478504517 0 0 0
38 1 1 0 639.0657940868252 638.8509977306685 674.5576567651215 0 0 0
39 1 1 0 679.3294486579665 633.3351019562491 644.34179917439 0 0 0
40 1 1 0 681.2310045715421 659.4464189553579 638.0858990573882 0 0 0
3505 1 1 0 683.6281410106545 681.9828245616943 638.9526220530611 0 0 0
42 1 1 0 672.9094099701377 634.3154902019928 640.043286889784 0 0 0
2560 1 1 0 655.8922171363507 682.311551777529 679.3461166844068 0 0 0
3305 1 1 0 682.710076293744 664.7113332493218 680.0923338036073 0 0 0
3286 1 1 0 682.5287718194428 664.7165869113736 677.6709905451644 0 0 0
46 1 1 0 631.1110791949828 659.2300405645458 635.6257682758476 0 0 0
47 1 1 0 641.2869284532427 637.2252223701217 679.882143532006 0 0 0
48 1 1 0 638.4976361730961 634.0995459608176 682.0202702202897 0 0 0
8380 1 1 0 643.6499475925735 684.3625114705299 682.7391144032065 0 0 0
50 1 1 0 634.5795694799169 637.1324244186085 683.9079697179817 0 0 0
51 1 1 0 636.3291066569503 635.3667078817754 681.7082970066225 0 0 0
8250 1 1 0 634.5209803152699 683.4685296417703 678.8079594196049 0 0 0
9516 1 1 0 654.8813002501472 683.5241265279084 681.4549612387182 0 0 0
54 1 1 0 653.2731202686432 661.0503579281875 632.7399899992062 0 0 0
16762 1 1 0 684.165498331327 667.1986572990465 636.8759143651937 0 0 0
56 1 1 0 634.0141463157929 636.8579118515573 632.8569087029763 0 0 0
57 1 1 0 633.8806415273727 636.659224933326 634.2458002684785 0 0 0
58 1 1 0 632.1012693098337 638.1587236014477 634.0439647949806 0 0 0
59 1 1 0 632.7921706276305 637.2640275064524 634.9141187054445 0 0 0
60 1 1 0 638.3742092780496 639.2593184278348 664.7326451209026 0 0 0
515 1 1 0 676.3934678293447 660.10132456361 684.1046153264706 0 0 0
62 1 1 0 634.9501794340761 636.250067017752 635.0083258478181 0 0 0
63 1 1 0 634.6462467577899 635.4771872796987 636.292523875391 0 0 0
64 1 1 0 633.0947101309233 637.6056657167204 636.2274892855045 0 0 0
65 1 1 0 633.8202919424143 636.674168485686 637.0091807838293 0 0 0
66 1 1 0 637.1225705252431 635.025028256641 638.9366539372118 0 0 0
67 1 1 0 676.2153171867161 636.2802762206449 638.0917339174517 0 0 0
68 1 1 0 636.0887429063076 635.499004519887 636.8424515466472 0 0 0
69 1 1 0 636.2700576328903 635.8083703120002 638.1939260907744 0 0 0
70 1 1 0 634.324722276759 637.1684563081495 638.2746260437555 0 0 0
71 1 1 0 635.4375104308871 636.6543350265695 638.8967361280805 0 0 0
72 1 1 0 635.5747886269294 637.2246112651914 677.2181205789057 0 0 0
73 1 1 0 681.3268884590848 669.9910675621454 640.6654641474609 0 0 0
74 1 1 0 633.9262464044347 636.2513859490069 647.4174070492236 0 0 0
75 1 1 0 637.1181692203954 635.1320298332382 640.3166378654518 0 0 0
76 1 1 0 635.9058655276506 637.1504769550243 640.1292428092773 0 0 0
77 1 1 0 636.6144197613017 636.2737921882468 640.9749472754602 0 0 0
78 1 1 0 639.1020891103755 640.0018256463803 680.2813948869745 0 0 0
79 1 1 0 683.1695177172759 636.1500275161578 639.8146274506851 0 0 0
169 1 1 0 665.3738851922403 634.7031038957384 631.1038942505814 0 0 0
81 1 1 0 637.8503586784615 655.159169471107 654.6349450475396 0 0 0
82 1 1 0 636.411024995522 636.5103585394778 642.3886481390052 0 0 0
83 1 1 0 641.3314685590329 638.2721618342566 675.5479939056285 0 0 0
84 1 1 0 650.0963021613838 631.8437569925218 660.8820516731809 0 0 0
85 1 1 0 633.9284688339136 641.077323320117 632.9972017828035 0 0 0
86 1 1 0 633.6859321966392 643.7510643291821 633.0799220963117 0 0 0
87 1 1 0 632.3568370571078 644.1943799867387 633.1221405569194 0 0 0
88 1 1 0 663.0995933937106 682.2974980186867 655.566835156 0 0 0
1307 1 1 0 683.4746074180426 681.9851832529415 649.5235932231753 0 0 0
90 1 1 0 639.9139019789524 636.4987204514349 682.5358244278474 0 0 0
91 1 1 0 660.9041319458202 633.1037233517595 674.7467388515774 0 0 0
92 1 1 0 634.7671533618762 640.6700539748015 676.122043669697 0 0 0
93 1 1 0 634.2887485508611 641.6821155246531 634.1909421911065 0 0 0
94 1 1 0 633.586773682008 634.4937245047591 675.2733042319788 0 0 0
95 1 1 0 634.1574780490804 643.0703705899631 634.2708344716451 0 0 0
96 1 1 0 633.6855435466674 643.5409495878812 635.5394065076966 0 0 0
97 1 1 0 631.7925238985256 644.4630972435629 634.3520774301654 0 0 0
98 1 1 0 632.4743834229367 644.2577246504684 635.5320306552184 0 0 0
13568 1 1 0 630.1336693840747 634.9963498187116 647.4348315714398 1 0 0
1016 1 1 0 632.8254092615442 636.9032694326793 630.7519174220275 0 0 0
101 1 1 0 634.3981110798521 641.4886810430312 636.5636109957042 0 0 0
2548 1 1 0 683.9235471981967 631.3214314341677 647.2098575547948 0 0 0
3086 1 1 0 652.5747136782854 662.5544957763468 631.1493385025783 0 0 0
104 1 1 0 672.0924575475348 633.6436383287772 674.977904452836 0 0 0
105 1 1 0 673.1521568031526 633.6823407589733 674.0083298415525 0 0 0
106 1 1 0 634.4213966428708 635.6991879254564 675.073860211002 0 0 0
2831 1 1 0 630.1718561480857 653.1487575402639 634.7756001163249 0 0 0
7907 1 1 0 654.2709516042403 683.7471684854331 680.1592123445752 0 0 0
109 1 1 0 634.0528949487101 642.8311422626585 636.6995612742195 0 0 0
6935 1 1 0 630.8880205218345 638.3506994224674 630.438782874352 0 0 1
111 1 1 0 631.8682133344421 644.443138730797 636.7807982158761 0 0 0
112 1 1 0 632.4977610893324 643.9939297791713 637.9204616044707 0 0 0
9969 1 1 0 650.0728451698669 682.2521036599377 675.175352451243 0 0 0
114 1 1 0 656.0107917596752 631.5531472948868 663.968779655401 0 0 0
115 1 1 0 673.7196905222604 635.4555903780854 640.5803983833895 0 0 0
116 1 1 0 682.883260625402 651.1821876984347 636.0750713366416 0 0 0
14059 1 1 0 683.8553226999707 653.1330645494083 634.7561044196214 0 0 0
118 1 1 0 637.6897715290796 669.204773588048 631.8223021200856 0 0 0
1983 1 1 0 648.6715604126882 630.6572605576588 639.98250584128 0 0 0
3314 1 1 0 683.5584415410872 665.9793236730765 669.0133481554607 0 0 0
121 1 1 0 676.2373181565663 658.639231435142 682.1408002636047 0 0 0
122 1 1 0 642.4202667158663 669.731942310487 632.9304560480268 0 0 0
7667 1 1 0 630.945877579088 684.2749103378507 678.2611777099842 0 0 0
124 1 1 0 683.420135518109 684.1793343996486 641.3260696782586 0 0 0
125 1 1 0 680.953431894566 634.1538945304869 648.6858041768513 0 0 0
126 1 1 0 663.7294144917851 633.6030124187831 681.9614683346958 0 0 0
127 1 1 0 630.9977300414184 645.3632426242125 639.1815876948444 0 0 0
128 1 1 0 682.0046517682832 641.2570102418816 636.3167271159022 0 0 0
129 1 1 0 633.1668826832567 635.3643991441824 682.8356766666011 0 0 0
635 1 1 0 644.3214882452256 658.6919688527288 683.9448377473702 0 0 0
131 1 1 0 635.6328265820424 638.4019183229037 640.5368417148653 0 0 0
132 1 1 0 636.0660939779452 638.9045213332591 641.7778658397369 0 0 0
878 1 1 0 630.7136319438281 636.2273573650617 676.4293204056121 0 0 0
134 1 1 0 635.5530408200307 640.2317201622665 642.2630739694843 0 0 0
1537 1 1 0 682.80251387371 645.0482510231031 667.459204860154 0 0 0
136 1 1 0 632.785315993201 642.0837881838228 642.4855936975042 0 0 0
137 1 1 0 672.5328634673887 652.3199971110618 679.7424063282341 0 0 0
138 1 1 0 632.184367887105 643.3701144054457 642.5765057120607 0 0 0
139 1 1 0 664.1142868490796 682.8186184062135 651.6641067215028 0 0 0
798 1 1 0 679.7224188921678 682.9475708551159 680.8040241374515 0 0 0
422 1 1 0 631.6462571243693 651.8008117805224 630.689097937679 0 0 0
142 1 1 0 674.751851019201 634.8072798160015 644.1685828947791 0 0 0
143 1 1 0 640.7919761597543 634.7136509434254 682.8874869624218 0 0 0
144 1 1 0 640.1242973187645 666.9515331391315 636.8859872212631 0 0 0
145 1 1 0 636.2394330668435 637.8929232400585 642.7859835042208 0 0 0
146 1 1 0 635.2918297231254 638.1695013255502 643.8366086604162 0 0 0
147 1 1 0 635.6031652954983 640.4770492790366 643.6605859499078 0 0 0
148 1 1 0 635.4970087655383 639.3579179554871 644.6048224698296 0 0 0
149 1 1 0 635.4387444433187 641.8170684228036 643.9968810356055 0 0 0
150 1 1 0 634.173962721595 642.3776496722975 643.9881524278032 0 0 0
151 1 1 0 632.6502898271958 644.1730523323779 643.6166335842822 0 0 0
152 1 1 0 633.6722268487405 643.620033592863 644.3450974770824 0 0 0
153 1 1 0 632.255719837531 645.4603281119821 643.917832326566 0 0 0
154 1 1 0 635.2738537840146 654.9990239663102 649.7258834991964 0 0 0
155 1 1 0 669.7969036219438 637.9125320168695 677.3729274158973 0 0 0
156 1 1 0 669.3934986846737 633.3233256710563 680.4360455307921 0 0 0
157 1 1 0 639.454182142745 666.3356445511264 635.8626449255321 0 0 0
158 1 1 0 668.2479104222016 635.0847227317007 679.270753150634 0 0 0
584 1 1 0 666.2304599834625 630.6778274381661 635.8023649367157 0 0 0
853 1 1 0 662.0916771311788 633.2574118628902 683.8871531006447 0 0 0
161 1 1 0 664.0811881718535 634.2207451549912 631.4864667787195 0 0 0
162 1 1 0 636.6082211299706 637.9858049222806 677.0339219139063 0 0 0
163 1 1 0 638.529302627754 656.3591798488522 654.9455774598968 0 0 0
164 1 1 0 663.0493243211708 656.5616575471986 678.483621039463 0 0 0
165 1 1 0 649.16281000792 632.8640040078116 660.7063367801991 0 0 0
166 1 1 0 668.2910363206989 636.4739642882264 678.8936850988356 0 0 0
167 1 1 0 679.2525071643394 633.440603414603 647.1006605763043 0 0 0
168 1 1 0 678.0959307385813 681.3326907325927 645.2944009790309 0 0 0
285 1 1 0 647.7230124997542 633.1916523635947 630.8647254373699 0 0 0
170 1 1 0 663.7438687143232 634.4646961264681 632.7470278616105 0 0 0
8026 1 1 0 663.295908354475 683.7917088722114 679.3124102622556 0 0 0
172 1 1 0 669.97066401327 637.9659861066312 675.9310720898392 0 0 0
173 1 1 0 634.134400718383 636.305995629358 682.8805906627011 0 0 0
174 1 1 0 645.9327137734268 681.0610078480404 677.1398534346118 0 0 0
175 1 1 0 662.3645208515898 632.6629218809109 632.7504249452451 0 0 0
176 1 1 0 634.2026357635801 637.7272409434746 647.020623913251 0 0 0
177 1 1 0 671.0317316829072 637.2266429300095 675.3347202456728 0 0 0
178 1 1 0 636.6396709508047 668.0715475483609 632.081355574378 0 0 0
179 1 1 0 663.4138743453847 680.8960567242164 655.5596749065827 0 0 0
180 1 1 0 681.1495420885063 664.0011643539182 683.9289498056951 0 0 0
181 1 1 0 640.006359747357 637.850447946162 680.6006393413927 0 0 0
182 1 1 0 661.7821918347372 631.6876716726209 633.611330946299 0 0 0
183 1 1 0 667.9495802615616 635.3890218774743 676.2384821554614 0 0 0
184 1 1 0 677.238994694072 634.1323973332463 642.8257054166135 0 0 0
185 1 1 0 673.7154022755575 631.3603168625293 674.7311753566655 0 0 0
7694 1 1 0 630.9840688234984 684.2595661616035 676.8148068016687 0 0 0
187 1 1 0 678.1673222864137 637.0432845844009 639.4203603635912 0 0 0
7680 1 1 0 640.4116321247552 682.3468436358908 679.7180663697507 0 0 0
189 1 1 0 632.7814411942372 668.9340628703328 631.0155039498119 0 0 0
190 1 1 0 634.1128052286545 640.893556019348 635.3414388298125 0 0 0
191 1 1 0 635.2308928590797 634.2293578810248 642.8857152206476 0 0 0
192 1 1 0 634.271502364189 635.0859443950433 646.5080196241394 0 0 0
193 1 1 0 637.1364018114359 636.1170072294811 649.5663959495355 0 0 0
194 1 1 0 637.4934976786052 635.8963337895691 644.8780000503517 0 0 0
195 1 1 0 632.8598467658109 647.5619020825327 644.9122076753 0 0 0
196 1 1 0 665.0753511835561 657.5900019286132 679.4262392796605 0 0 0
197 1 1 0 646.975863527235 631.2676378026911 658.6444714174417 0 0 0
198 1 1 0 638.4248630604604 637.9034852913159 675.5218640254552 0 0 0
199 1 1 0 665.985474956218 632.5691702142373 680.2367422174606 0 0 0
9602 1 1 0 643.5007419430132 683.6071322787895 678.0050224229016 0 0 0
201 1 1 0 632.8160877503907 636.986760290807 632.1407036906838 0 0 0
7492 1 1 0 669.5656018548301 630.8697597042594 680.558452477325 0 1 0
203 1 1 0 636.7126678871306 634.7748045853548 645.3323564875277 0 0 0
204 1 1 0 677.0607593479341 633.9892645638674 644.2146694520436 0 0 0
205 1 1 0 647.4148522502753 631.3341032967859 660.0258364623157 0 0 0
206 1 1 0 652.2346290431101 632.7573956362594 662.1931483782153 0 0 0
207 1 1 0 631.4436429783386 647.4564119782219 631.371541372891 0 0 0
208 1 1 0 682.7150280841145 640.0760405117143 644.5702695736234 0 0 0
209 1 1 0 640.9497779548419 634.4225619016668 653.0339268762425 0 0 0
210 1 1 0 669.5084440329756 634.4844485629288 679.5864288998122 0 0 0
211 1 1 0 681.7474427197965 633.065198771877 643.2555034104449 0 0 0
212 1 1 0 632.7972991609621 637.6127053907946 674.955798725907 0 0 0
213 1 1 0 639.0388287907797 639.9703237916375 681.8937851763113 0 0 0
214 1 1 0 669.4931181024126 636.7332706390746 678.1364066924714 0 0 0
240 1 1 0 645.2189724669599 633.6443454631819 630.8928275550852 0 0 0
216 1 1 0 640.6243135577048 637.6196184949665 664.7738474921887 0 0 0
217 1 1 0 631.8312795957866 646.1420339612381 642.7434456825525 0 0 0
218 1 1 0 632.172152675071 639.902768658327 631.8084111606466 0 0 0
270 1 1 0 632.6304413598112 640.4363607375653 630.6448143164387 0 0 0
220 1 1 0 634.2723109068189 633.7911698587754 680.5817150558031 0 0 0
221 1 1 0 635.1913983767167 635.615255328442 650.8781657247046 0 0 0
222 1 1 0 635.5799491656203 634.9706130311159 646.111102968201 0 0 0
223 1 1 0 671.6480807205569 634.3898741064867 640.6639427610482 0 0 0
7313 1 1 0 656.7739311628103 682.771645604731 680.2743651067735 0 0 0
225 1 1 0 647.6354406534562 662.282501639191 635.6730684800306 0 0 0
226 1 1 0 649.8951060213095 661.52981159398 635.3143094180294 0 0 0
227 1 1 0 650.083267338376 661.4172886275073 636.6945650661984 0 0 0
228 1 1 0 647.7110536925504 661.2984509231486 636.7418340472342 0 0 0
229 1 1 0 646.5206027037162 661.1528149368453 637.5796053854377 0 0 0
230 1 1 0 648.9627307256261 661.1929621855642 637.4362921249015 0 0 0
231 1 1 0 649.0097959935315 661.5403959068204 638.7857345625865 0 0 0
232 1 1 0 646.6788049037727 660.6129513711805 638.934845046782 0 0 0
233 1 1 0 645.7484167468621 659.922661612981 639.8174927945922 0 0 0
234 1 1 0 647.9589410182659 661.1087780520749 639.6000308105856 0 0 0
235 1 1 0 648.0960823418314 661.6308522597327 640.9098115324856 0 0 0
236 1 1 0 639.5507122565522 642.6433751331282 676.9063370128059 0 0 0
237 1 1 0 638.9554169088847 643.5888486389886 676.0536096745116 0 0 0
869 1 1 0 643.9644263917605 638.9647757432326 684.1992960807746 0 0 0
3566 1 1 0 680.3207424421196 648.0541658128191 631.2270047016152 0 0 0
17098 1 1 0 683.2742453030719 651.1519531834687 631.2678302584748 0 0 0
241 1 1 0 675.3072632351483 636.4248617853391 646.4236653429617 0 0 0
242 1 1 0 635.1026174091336 641.1734774983333 674.9201809785521 0 0 0
243 1 1 0 659.5794167456365 682.2468393955028 673.4982492345812 0 0 0
2877 1 1 0 684.2155095909716 680.1911533763658 661.1149926112246 0 0 0
5127 1 1 0 676.4479840976626 644.1231824336364 631.0399650580771 0 0 1
1856 1 1 0 664.9034743899264 660.584896954151 684.5207213716907 0 0 0
247 1 1 0 683.5005446477578 634.3306059904763 646.2485158372725 0 0 0
3360 1 1 0 630.4434234290541 661.3211945268121 674.2599914602384 0 0 0
249 1 1 0 670.6326567490221 637.683890610006 632.9562060474032 0 0 0
250 1 1 0 678.5068893750185 634.4393427173435 640.7870921767017 0 0 0
251 1 1 0 673.9714252169058 634.6475541720588 637.7491228808921 0 0 0
252 1 1 0 681.8237065640624 636.1700635266092 639.445505501943 0 0 0
253 1 1 0 653.6182697644134 632.7169596287187 662.5721384417691 0 0 0
254 1 1 0 633.1299016814281 633.1479679960123 684.00402768683 0 0 0
255 1 1 0 671.9218397699511 637.2039221299474 632.5810745852717 0 0 0
256 1 1 0 671.9214444738845 632.5649029175753 675.826740721335 0 0 0
257 1 1 0 636.7820420652655 660.0547380699848 677.7940717696064 0 0 0
258 1 1 0 631.218552303681 649.2502000980277 670.8101967625034 0 0 0
259 1 1 0 670.7667674199024 633.1363892307127 678.0388059905183 0 0 0
260 1 1 0 634.3672039996419 637.1397510164754 673.136392667813 0 0 0
261 1 1 0 670.2760720865127 634.4366435113561 678.3840865315748 0 0 0
262 1 1 0 631.7913836373914 637.7545670203608 632.717231932922 0 0 0
263 1 1 0 682.6311684952392 640.4255249458649 646.1306390800651 0 0 0
264 1 1 0 635.7533945074507 680.2392374187436 676.769962420409 0 0 0
265 1 1 0 669.8662841992744 632.1198750500199 679.9692343433669 0 0 0
266 1 1 0 681.669107726219 635.8914246999185 644.3548551509415 0 0 0
267 1 1 0 677.1673020860703 634.8212787539183 646.9751679034481 0 0 0
8518 1 1 0 639.562776423092 682.3715463014321 674.4688961551183 0 0 0
7115 1 1 0 665.3566807759308 684.4210738752738 678.0189345221457 0 0 0
1904 1 1 0 646.1620577448609 630.9754321482005 647.2026087395533 0 0 0
271 1 1 0 670.9548735978775 632.2214951685121 679.0622597122664 0 0 0
14406 1 1 0 683.771003502518 644.0318573570318 667.5035094863334 0 0 0
273 1 1 0 682.938551708072 651.2469167844382 633.6472529825965 0 0 0
274 1 1 0 635.5337529784317 639.4310932566815 646.0353934915556 0 0 0
9428 1 1 0 650.5066251792434 684.049916341696 676.4587286892923 0 0 0
276 1 1 0 683.5259914254195 633.3594893900109 645.1771927969695 0 0 0
141 1 1 0 642.0619896903138 670.6070169439906 630.7832867936138 0 0 0
278 1 1 0 676.4056961053761 678.7131490367351 649.1686357213545 0 0 0
279 1 1 0 675.1318030484522 679.9174726138036 647.4397558138298 0 0 0
280 1 1 0 676.1225653711787 634.7646925002451 640.6187742510951 0 0 0
281 1 1 0 642.4610739782828 633.9807997420024 649.3812440021527 0 0 0
282 1 1 0 630.5603089156438 657.9186669376302 631.2254574744954 0 0 0
283 1 1 0 640.6386801859004 637.3368022819907 677.6207254705686 0 0 0
284 1 1 0 636.1879214406812 652.8937191905176 654.0305330153734 0 0 0
9940 1 1 0 680.5088702522974 630.7026933729938 674.0252261546422 0 1 0
286 1 1 0 630.678948671077 655.9714727796965 632.6016728718678 0 0 0
578 1 1 0 631.2328622372943 683.6384923970558 665.1688589828498 0 0 0
3288 1 1 0 681.2956946204265 684.3365581793353 643.3092225756644 0 0 0
289 1 1 0 636.5735177897849 637.9847730776099 680.9000942522213 0 0 0
290 1 1 0 633.2221504387538 633.0594726968146 677.1352235546407 0 0 0
291 1 1 0 640.6983054200181 641.7838765679402 676.2469940929197 0 0 0
292 1 1 0 641.8325673633384 641.4775656484444 674.5678466359369 0 0 0
293 1 1 0 634.867107189801 636.130320448213 648.6246498864073 0 0 0
294 1 1 0 672.6041569950335 634.9252842687678 642.749338307313 0 0 0
295 1 1 0 671.4569745497313 634.9319101646361 641.9475294538587 0 0 0
296 1 1 0 637.907684307984 636.2896385638927 674.0538840818035 0 0 0
297 1 1 0 682.0373220977671 649.0599656936977 637.1296112556714 0 0 0
298 1 1 0 664.4186775717424 681.3188494021862 653.3808831333482 0 0 0
638 1 1 0 656.4659833136491 667.2445994703057 630.8321810727595 0 0 0
300 1 1 0 638.953630314222 636.4714008335445 646.9741392950061 0 0 0
301 1 1 0 636.5170275229415 636.1087351013277 650.8383476983272 0 0 0
302 1 1 0 654.6776818022955 659.409709536707 681.2769007069564 0 0 0
1841 1 1 0 652.3458237015665 631.5695091135799 642.8750701168642 0 0 0
14040 1 1 0 683.6284989132974 643.1094681885827 666.4356856358004 0 0 0
305 1 1 0 642.8836075718245 633.1298104695535 650.4262270681397 0 0 0
306 1 1 0 683.4331521831064 672.890825932637 639.9600035559479 0 0 0
3312 1 1 0 642.799049887567 634.0344460215289 630.8709429566601 0 0 0
308 1 1 0 677.2054590691928 632.140143856162 671.2854916212207 0 0 0
309 1 1 0 678.0514957308656 633.8779030711486 646.3818601258836 0 0 0
7445 1 1 0 632.0833403007094 683.8857636466093 678.9613412837747 0 0 0
13376 1 1 0 650.2068574885402 682.3134634117422 683.8965905012232 0 0 0
312 1 1 0 682.1937099214827 649.9097973206892 636.0642480230531 0 0 0
313 1 1 0 662.695288625877 634.3839837371207 636.9126565203366 0 0 0
314 1 1 0 636.2310393814481 637.4347023834022 633.3966226273376 0 0 0
3693 1 1 0 630.8715228718266 634.0799622537145 630.4992765952289 0 0 1
316 1 1 0 638.2444977600811 643.2680736215989 674.8037621670509 0 0 0
317 1 1 0 656.0689518424409 659.4098051416211 680.8273884438247 0 0 0
318 1 1 0 671.9810563616912 634.8169998002903 632.5603353306708 0 0 0
319 1 1 0 639.9392172750196 635.0171873086427 680.3018733908949 0 0 0
320 1 1 0 678.6300793208609 683.1373360220884 648.6604697774193 0 0 0
321 1 1 0 631.2186668973558 680.7032445466925 674.9448087549647 0 0 0
322 1 1 0 679.7202048846796 634.4138553990559 648.0162755505656 0 0 0
323 1 1 0 643.5404632375512 680.8054142262407 677.5075924867514 0 0 0
324 1 1 0 678.8027839277703 646.5534339886805 632.3501756649847 0 0 0
325 1 1 0 677.8091027762435 645.6110914596745 632.3537095294341 0 0 0
326 1 1 0 634.2938829855473 635.7030968674576 649.8156087788836 0 0 0
327 1 1 0 646.3305935611587 632.7624644469468 631.4455397029619 0 0 0
328 1 1 0 675.0225941608212 635.4094379912649 638.42891288757 0 0 0
329 1 1 0 640.3905699654482 634.0960037999596 643.7330039813195 0 0 0
330 1 1 0 640.0753930516923 638.7517662278135 678.1001586639802 0 0 0
331 1 1 0 681.810690340485 649.4145668471093 634.8136825668078 0 0 0
332 1 1 0 631.5809920420214 639.7145466508805 674.9095753790995 0 0 0
333 1 1 0 633.4560010217376 639.114434631726 677.6778541781113 0 0 0
334 1 1 0 635.2869385356258 636.4390233421807 678.3200198263436 0 0 0
1154 1 1 0 683.096264420496 654.053921030495 666.7658758132725 0 0 0
336 1 1 0 676.2067055209604 643.3344429714218 632.1885286859432 0 0 0
337 1 1 0 677.6689319800491 644.7133690034068 633.4332547088763 0 0 0
338 1 1 0 676.9787377762109 643.5289491153164 633.3421126466649 0 0 0
339 1 1 0 631.1670329686059 680.6265321288562 678.6631968220588 0 0 0
340 1 1 0 675.4179989782095 633.6366779191246 672.388711236285 0 0 0
341 1 1 0 646.3966201208443 632.6233000441608 634.1917985071606 0 0 0
342 1 1 0 633.9173921182011 642.4940681600738 639.075229478394 0 0 0
373 1 1 0 651.5799482277608 682.3112568749731 675.1567538320012 0 0 0
344 1 1 0 636.5482778103028 681.5772525256094 678.9152748286315 0 0 0
345 1 1 0 675.605246998761 642.0709233260334 632.0271163360426 0 0 0
346 1 1 0 675.6873551025408 641.0264843317098 632.9752232535573 0 0 0
347 1 1 0 676.9766660318721 642.5095140417244 634.3645436992274 0 0 0
348 1 1 0 676.3255277553368 641.2079805929552 634.1870543686259 0 0 0
349 1 1 0 682.9696137154112 635.4187495012335 648.5239892340045 0 0 0
350 1 1 0 648.7619485928947 632.3776596651563 631.4329669625531 0 0 0
351 1 1 0 674.3499526334435 639.6255096317341 631.6107962770994 0 0 0
352 1 1 0 673.4451075666321 638.5614871514896 631.4471525088644 0 0 0
353 1 1 0 675.1373958636029 639.7338587323327 632.7283667283327 0 0 0
354 1 1 0 675.0811607878646 638.7021030824484 633.735012693522 0 0 0
355 1 1 0 676.2449711610304 640.2700438818541 635.2547009102201 0 0 0
356 1 1 0 675.7334533769807 638.9197269602536 635.0216063591417 0 0 0
357 1 1 0 673.1484270789116 637.8720781356704 632.5805632260171 0 0 0
358 1 1 0 674.0948234856962 637.7294362746389 633.5644659953499 0 0 0
359 1 1 0 673.7954795630905 636.7265237743592 634.601080586389 0 0 0
360 1 1 0 675.4260934294632 637.9544227011654 636.1228315552153 0 0 0
361 1 1 0 674.121052894018 637.3575798506583 635.9208598976883 0 0 0
362 1 1 0 642.2197181307644 667.6103533328483 634.2783651843204 0 0 0
363 1 1 0 641.567956448727 668.549441601984 633.4025379203068 0 0 0
364 1 1 0 641.5781385235015 669.2874307970393 636.8255926754446 0 0 0
365 1 1 0 641.9788268211349 665.7225974865405 635.8712111351053 0 0 0
366 1 1 0 655.6085505572137 631.2097537803587 662.6736703788592 0 0 0
9307 1 1 0 639.775489656916 680.6006900383849 677.5494368203553 0 0 0
368 1 1 0 677.3436356895252 634.92397263614 640.0308523519484 0 0 0
110 1 1 0 630.1242244154004 646.9208664502253 631.5541408023456 0 0 0
370 1 1 0 681.8686272208563 675.9819753393773 683.5373781406644 0 0 0
371 1 1 0 655.1262510377467 664.577604495297 631.3884688504066 0 0 0
372 1 1 0 640.8264918436035 640.7056325752256 674.0366877848171 0 0 0
11249 1 1 0 651.5758331189472 682.4325511984043 684.1791694427052 0 0 0
7688 1 1 0 635.8227286247961 683.8375585228523 678.4161116127603 0 0 0
375 1 1 0 632.7078418653914 639.0036795341856 675.2873870174105 0 0 0
799 1 1 0 630.1512642258149 652.2731287646501 641.9683510042786 0 0 0
8972 1 1 0 639.3733328131241 680.7451993138606 676.1503989725505 0 0 0
378 1 1 0 638.5986315994464 640.6964176781039 673.2960667083022 0 0 0
379 1 1 0 637.5439862567979 637.0066392742866 671.4628079269199 0 0 0
380 1 1 0 636.0097721302739 681.4067412402043 674.7033325745057 0 0 0
381 1 1 0 680.4062716723388 647.8489300977117 633.6058370572448 0 0 0
585 1 1 0 631.6548303729819 650.419410076964 630.5214376665516 0 0 0
383 1 1 0 680.9426978335273 648.307076895852 634.7947001938055 0 0 0
7652 1 1 0 630.5950288714249 632.1931652754639 679.1656057459084 0 1 0
385 1 1 0 633.0704387486174 636.7572486555885 676.9144704713235 0 0 0
386 1 1 0 679.3966339622732 646.9392441928295 633.5932095453463 0 0 0
387 1 1 0 679.2801853831079 646.0203515656516 634.6765033474737 0 0 0
388 1 1 0 680.7134112164312 647.4918758612025 635.9145520391507 0 0 0
389 1 1 0 680.099045426577 646.1988946867372 635.7619841026341 0 0 0
390 1 1 0 681.3269151971148 647.8227935057341 637.1328421477427 0 0 0
391 1 1 0 681.1601291362379 646.8014946912774 638.1366904125954 0 0 0
392 1 1 0 678.3822462748074 644.9691475264167 634.5986889442156 0 0 0
393 1 1 0 678.4632800558857 643.9146212295306 635.558873045578 0 0 0
394 1 1 0 680.2333839062991 645.1205854885823 636.7771208846665 0 0 0
395 1 1 0 679.542080249449 643.903849098323 636.4831470535852 0 0 0
396 1 1 0 680.9881539273941 645.4296017642143 637.9105878855036 0 0 0
397 1 1 0 681.8430023092855 644.4078274516455 638.320241424033 0 0 0
398 1 1 0 677.7020623917128 642.7669568751169 635.4765292755367 0 0 0
399 1 1 0 677.9056925497109 641.7020699495519 636.4117512143313 0 0 0
400 1 1 0 680.1836960089706 642.7235026323322 636.6392755366398 0 0 0
401 1 1 0 679.3577140148013 641.5973326012454 636.9887072247593 0 0 0
402 1 1 0 681.5517225010872 642.4897556218657 636.882147835462 0 0 0
9896 1 1 0 642.6669652385071 682.2309058363887 681.2261741692919 0 0 0
404 1 1 0 677.1607056367569 640.5584137211844 636.3396675640696 0 0 0
405 1 1 0 677.6645881175348 639.5470012590058 637.1279294001282 0 0 0
406 1 1 0 679.9039294696465 640.1765519294536 636.7057789600661 0 0 0
407 1 1 0 679.0072148792495 639.1737881077765 636.9904653025989 0 0 0
408 1 1 0 681.3519576343826 640.0362136647426 636.4984463217899 0 0 0
409 1 1 0 681.8638355590103 639.0326040583255 637.2483412268704 0 0 0
410 1 1 0 676.142600808493 637.4860007932306 637.3087898734284 0 0 0
411 1 1 0 676.8048351446901 638.6321582404921 638.1348742572113 0 0 0
412 1 1 0 679.572770301871 638.1021575575862 637.7532943343463 0 0 0
413 1 1 0 678.3398820403581 638.3821998422899 638.7093831627077 0 0 0
414 1 1 0 680.8726293842133 637.9395490003192 637.7728206035265 0 0 0
415 1 1 0 682.1880067895764 638.6046591104946 638.6888455508754 0 0 0
1160 1 1 0 653.679508748884 631.0153052237109 656.099397557649 0 0 0
575 1 1 0 681.9374894528765 684.2150919205374 659.766555775818 0 0 0
418 1 1 0 651.0374876310107 661.30360076256 634.6136811141722 0 0 0
419 1 1 0 651.1430806509968 662.2205312990943 637.2120177761395 0 0 0
420 1 1 0 649.8215658184046 662.6456805505717 639.230356154131 0 0 0
421 1 1 0 648.2640583480649 663.0442716784738 640.9960530605592 0 0 0
8970 1 1 0 662.7906768849116 683.075671491324 675.0933450953742 0 0 0
423 1 1 0 641.0403537493459 634.1801969297575 651.6782676612919 0 0 0
424 1 1 0 632.9966519859792 641.1877502472047 643.7795063982704 0 0 0
425 1 1 0 654.2271106223224 664.0099470721204 632.6949976682153 0 0 0
2460 1 1 0 630.606714465825 632.1495340887803 643.820386048362 0 0 0
427 1 1 0 652.9050859969107 663.759497172716 632.1408656161818 0 0 0