LAMMPS data file via write_data, version 2 Aug 2023, timestep = 50000, units = metal

6912 atoms
1 atom types

643.913949526595 716.0120504734037 xlo xhi
644.1651702066548 716.4698297933418 ylo yhi
644.1896335318903 716.4453664681063 zlo zhi

Masses

1 12.0107

Atoms # full

1 1 1 0 661.7548645728164 648.766725268763 677.4182763809814 0 0 0
2609 1 1 0 672.6905135432518 644.5454230038331 662.2389790678433 0 1 0
3 1 1 0 663.3711551749049 647.8538589425681 675.8271503339749 0 0 0
1704 1 1 0 669.2988353667835 650.7715942896366 644.9919986005963 0 0 1
5 1 1 0 647.0210299111833 664.6352793807872 653.4880744797808 0 0 0
543 1 1 0 644.7479867825706 674.1637830465078 679.8053981615735 0 0 0
32 1 1 0 679.7019183155292 665.6194598589651 661.9116441226415 0 0 0
8 1 1 0 654.4159131718811 673.890735088431 647.0967093094014 0 0 0
9 1 1 0 664.6251687333491 647.2989206825519 675.662596046883 0 0 0
10 1 1 0 669.2981248481213 658.7456830130935 653.60659438865 0 0 0
11 1 1 0 670.509962541459 659.3861782901284 653.1671039417391 0 0 0
12 1 1 0 670.2752261309738 658.5625871237291 650.9246560049468 0 0 0
13 1 1 0 671.1893485249516 656.9041675221196 653.503114883105 0 0 0
14 1 1 0 671.174771513388 658.7736320474736 652.0625273923721 0 0 0
15 1 1 0 671.883406570801 657.5610851586983 652.386390039134 0 0 0
16 1 1 0 672.1730328337644 656.5630729548027 651.4243184786883 0 0 0
17 1 1 0 669.0753823987515 657.6174272871192 652.7551252097836 0 0 0
18 1 1 0 669.9109533439777 656.4438476000644 653.0443754302929 0 0 0
19 1 1 0 669.1367926995687 657.8805389422747 651.3424881688865 0 0 0
20 1 1 0 668.6605065422538 656.7987687838578 650.5054782787504 0 0 0
21 1 1 0 667.020533116915 658.0488215918738 649.105741298419 0 0 0
22 1 1 0 668.0225870652964 657.0238699520833 649.2755356460129 0 0 0
23 1 1 0 666.4901729303856 658.2283017971133 647.8340599589461 0 0 0
24 1 1 0 667.2826434498502 657.9165861366446 646.6961097889833 0 0 0
25 1 1 0 670.0747270977514 655.5104699182289 651.9218881780189 0 0 0
26 1 1 0 671.4733764583276 655.3278712694096 651.5488560985242 0 0 0
27 1 1 0 669.256655463959 655.5517251719409 650.7659167540527 0 0 0
28 1 1 0 669.8032261633816 654.8577398347887 649.643119415373 0 0 0
29 1 1 0 668.6233556202503 656.5097598333339 648.1340080237836 0 0 0
30 1 1 0 669.7966881311075 655.5789351708813 648.2671624140008 0 0 0
31 1 1 0 668.0649010459907 656.7232002240446 646.8628678409087 0 0 0
2673 1 1 0 673.529014218368 646.4568612811253 668.1344698842771 0 1 0
33 1 1 0 671.8173318489471 654.3032344621979 650.6184351810667 0 0 0
34 1 1 0 673.0287984966726 654.3741690120762 649.9293817578396 0 0 0
35 1 1 0 670.7535808962862 653.8801759815989 649.8338467728838 0 0 0
36 1 1 0 671.0205714934878 653.0140298917844 648.7590780562077 0 0 0
37 1 1 0 669.5811997202073 654.3651158282825 647.3656486780042 0 0 0
38 1 1 0 670.1518526719999 653.1158862082309 647.6841223846878 0 0 0
91 1 1 0 653.8254264350707 644.7686180596144 649.4934212370871 0 0 0
40 1 1 0 676.4654251144368 648.0370430956134 664.54453463949 0 0 0
41 1 1 0 645.2852678569355 668.497764702896 650.8999537268381 0 0 0
42 1 1 0 656.7664248324878 672.059354811453 647.2128016954468 0 0 0
1851 1 1 0 675.5305671348315 647.1398357513701 665.0682729400966 0 1 0
4 1 1 0 665.7150537485411 645.2014480320344 676.0042909451546 0 0 0
2139 1 1 0 669.6115686767276 680.1348819655143 678.3092861401728 0 0 0
688 1 1 0 645.1361084793159 656.2569678176477 661.9391716100974 0 0 0
47 1 1 0 655.7708228860497 647.804431231104 653.5218328148451 0 0 0
48 1 1 0 654.6177265802775 677.1198927834051 662.2506955861857 0 0 0
49 1 1 0 648.7650555835643 670.307720296706 646.5177313550821 0 0 0
50 1 1 0 653.654239981661 678.0786693101986 664.2990629389697 0 0 0
51 1 1 0 677.438943730956 665.2526211554102 677.447099207635 0 0 0
52 1 1 0 670.8757623536846 658.3845177932193 649.6411954349229 0 0 0
53 1 1 0 671.5412631975645 657.1950732090388 649.1824237201388 0 0 0
54 1 1 0 671.1390374163915 656.3530988915802 648.1283711067227 0 0 0
55 1 1 0 672.5549845091189 656.7296862480196 650.048682931324 0 0 0
56 1 1 0 673.3170163744935 655.7025138012713 649.478205251852 0 0 0
57 1 1 0 672.2265972021332 655.9099728777871 647.3180541884118 0 0 0
58 1 1 0 647.7705951889392 669.365838598574 650.7172698960746 0 0 0
59 1 1 0 673.4708485871188 655.807216977983 648.0737961352942 0 0 0
60 1 1 0 676.84988431746 648.1736105961188 663.2098008312971 0 0 0
978 1 1 0 666.6772580387063 661.0500323905683 644.6047993019298 0 0 1
925 1 1 0 678.9846814142536 645.52142901874 644.4730321729304 0 0 1
63 1 1 0 656.6559924317615 673.378614545895 646.6028416357942 0 0 0
3555 1 1 0 679.4231634256263 664.4907380441732 678.7305222283784 0 0 0
65 1 1 0 655.5572779457441 671.8226561975374 647.955787733772 0 0 0
281 1 1 0 646.7224301145819 657.9374012748146 661.2113421067371 0 0 0
809 1 1 0 669.2570492456709 651.998872654972 645.6940867380822 0 0 0
67 1 1 0 679.3436663677868 667.7741857994871 663.6943918709576 0 0 0
2388 1 1 0 676.3265748844103 644.2662951168122 658.5144653945804 0 1 0
2482 1 1 0 670.1776382951923 644.6035324853681 671.2887524974489 0 1 0
71 1 1 0 669.8228194678205 663.4342978027112 676.8057369496497 0 0 0
364 1 1 0 644.2250236094163 664.1982587596202 646.0922964406091 0 0 0
278 1 1 0 679.9263487043388 667.6486834421859 678.3686259896666 0 0 0
358 1 1 0 644.0624545138331 668.3219724677838 645.0212263955108 0 0 0
2635 1 1 0 675.1383921152308 645.307703522583 661.8684606250526 0 1 0
76 1 1 0 647.8123526053785 677.2756117979955 670.0019078916146 0 0 0
77 1 1 0 662.2153475437593 653.9100479007108 659.1512847701903 0 0 0
650 1 1 0 645.1632886107102 677.9797195071206 672.3748510381844 0 0 0
2518 1 1 0 672.3829112484274 645.4519733871173 674.2471329274969 0 1 0
680 1 1 0 659.6634693076331 647.223656406138 679.771187583457 0 0 0
81 1 1 0 678.6318760843706 648.5128226193203 667.5602900836906 0 0 0
770 1 1 0 655.0051407092265 676.6608733078311 646.8809883968851 0 0 0
83 1 1 0 677.7889327546416 649.1294272469406 662.6422989703012 0 0 0
84 1 1 0 668.1002916129999 665.6185428151159 677.2519047815109 0 0 0
85 1 1 0 646.9608055416398 662.66150301387 655.1449990595013 0 0 0
265 1 1 0 644.0033740030344 667.9877771919952 650.2858006098232 0 0 0
87 1 1 0 678.4304485457432 648.5196200119359 661.3263064557877 0 0 0
3517 1 1 0 678.0171592455806 677.9692655443937 645.6204625974789 0 0 0
131 1 1 0 660.089872934643 649.6710119824094 679.0070024200371 0 0 0
2126 1 1 0 674.0144247501144 646.3808133480752 666.8052707870745 0 1 0
525 1 1 0 646.4360879904513 671.2736079458672 673.1508436544814 0 0 0
92 1 1 0 675.3361414538713 668.2403456926193 678.0867598660552 0 0 0
93 1 1 0 662.1179537547188 654.4154612628054 660.5170199281438 0 0 0
2553 1 1 0 671.8939592179803 644.548066989994 667.5588325687403 0 1 0
529 1 1 0 660.3310064667912 654.988170124493 680.1193972587279 0 0 0
2105 1 1 0 653.7509601527164 646.2846444188482 652.1348967647679 0 1 0
763 1 1 0 644.751858767991 672.7264671422502 646.3147283155689 0 0 0
2047 1 1 0 670.5379815253694 645.5011248105913 672.2758095278987 0 1 0
2288 1 1 0 674.3754682187702 644.4069567489082 671.8392198225484 0 1 0
100 1 1 0 666.6465094942972 645.67005111671 675.1186683822647 0 0 0
101 1 1 0 653.6904285208103 675.5789612320955 664.0035219863776 0 0 0
102 1 1 0 646.2174191784095 672.7635852975708 648.3044192979681 0 0 0
103 1 1 0 647.8869789512688 672.0581346410049 649.8989765853389 0 0 0
104 1 1 0 646.7558387866346 671.84918482593 649.2250284906106 0 0 0
105 1 1 0 647.3310969785226 669.3846566030038 648.3994067501834 0 0 0
106 1 1 0 646.2325059880895 670.3882005750278 649.1989057311303 0 0 0
107 1 1 0 646.972844495667 667.1210750920505 647.5256661747031 0 0 0
108 1 1 0 648.5660197092031 670.7331162510284 650.4533171410726 0 0 0
109 1 1 0 648.7503719158801 673.0863729856518 649.5024679411059 0 0 0
291 1 1 0 667.8516266519896 661.5286420439176 679.843038591707 0 0 0
111 1 1 0 648.7702121055395 668.5746161224084 648.687634459727 0 0 0
112 1 1 0 648.4954802718187 673.6352316246606 648.1658492235175 0 0 0
113 1 1 0 649.6020939671109 673.2823211752034 647.3682185985115 0 0 0
114 1 1 0 654.464638957049 675.9046052706942 662.8986684352348 0 0 0
115 1 1 0 659.9992556714917 655.4431026751352 660.1733151274512 0 0 0
116 1 1 0 654.8360117978905 648.3678665381047 652.605399263783 0 0 0
117 1 1 0 663.1534699143538 648.2438823687537 677.299125293255 0 0 0
118 1 1 0 648.3823726776903 670.3520268737724 647.8520872967399 0 0 0
2058 1 1 0 654.6969634089895 644.2549224007637 653.0733122497604 0 1 0
561 1 1 0 648.0421085539272 662.9366550558253 671.489301539757 0 0 0
3648 1 1 0 644.6773865511914 648.8941524989381 661.704877570441 1 0 0
122 1 1 0 660.8709592300436 648.9885655678536 676.2993336480849 0 0 0
780 1 1 0 654.5654913459307 671.427123925826 650.2759243667455 0 0 0
2287 1 1 0 675.5492421604315 644.2025769237672 671.0441359585587 0 1 0
979 1 1 0 674.6283633017297 647.2347189687249 644.5224338674573 0 0 1
126 1 1 0 661.1845657333048 648.6419086377214 678.6759105030862 0 0 0
127 1 1 0 649.1442645393971 670.8689629160965 648.9110083212262 0 0 0
128 1 1 0 649.8996399492701 671.1602300845909 651.2433975852043 0 0 0
129 1 1 0 650.4420357895604 671.2942860086288 648.7459838075141 0 0 0
130 1 1 0 650.6642840418244 672.7507434316867 648.2662667781564 0 0 0
332 1 1 0 667.5565132073024 663.1187977476599 679.7980018966426 0 0 0
132 1 1 0 650.7806399727483 672.0437832588701 650.7695249794566 0 0 0
136 1 1 0 644.9241281737321 672.5633889849752 647.7177799263134 0 0 0
361 1 1 0 678.6431468711966 668.2898855982329 678.5557116388152 0 0 0
94 1 1 0 647.6619964307247 666.7494019453649 672.0992898020287 0 0 0
7 1 1 0 645.5315561940984 659.1761600070109 659.567641539759 0 0 0
137 1 1 0 649.8853221929296 668.5311413971239 647.8590459996245 0 0 0
2356 1 1 0 676.9800068895956 646.4042290570359 660.9437081008238 0 1 0
777 1 1 0 646.1369847431758 661.7309530458748 655.8053454409578 0 0 0
299 1 1 0 657.4184715401464 644.3208380738766 679.444973454079 0 0 0
1760 1 1 0 675.1204853601236 646.0748166196894 664.2690449889284 0 1 0
518 1 1 0 647.1025679830275 670.0338053077389 672.9029409624868 0 0 0
143 1 1 0 672.2113964474887 666.3924713624242 677.2313794839014 0 0 0
144 1 1 0 645.3265243652352 664.650996413447 646.9283451533395 0 0 0
145 1 1 0 646.5695591331656 679.1657172017656 670.5655992696599 0 0 0
286 1 1 0 644.8193066842717 658.0618814072657 658.8439295493758 0 0 0
147 1 1 0 668.7538685901322 654.4146514536197 646.2526705022138 0 0 0
743 1 1 0 668.153417520245 678.5043433861026 679.5336954108786 0 0 0
149 1 1 0 647.6581338923534 678.6861809024475 669.7344588525953 0 0 0
150 1 1 0 653.1118741585885 673.7201313720318 653.0357409422102 0 0 0
151 1 1 0 652.9395415963917 674.9148560898742 653.7536049737502 0 0 0
152 1 1 0 653.0489309384371 675.2834627212158 655.1434680577762 0 0 0
153 1 1 0 653.0637330417059 676.6362642666865 655.5821223990184 0 0 0
154 1 1 0 653.35088616349 677.0595252791816 656.8757311632372 0 0 0
155 1 1 0 653.3274445491679 678.4777825127277 657.2303271813414 0 0 0
156 1 1 0 653.5533995891952 679.1551271888673 658.5050152027078 0 0 0
157 1 1 0 647.4213638151716 665.4401202141834 645.7401898440933 0 0 0
158 1 1 0 662.4517705731279 648.0854491057875 674.8897502391354 0 0 0
2285 1 1 0 678.4628183593677 644.4744712779902 667.6398555431274 0 1 0
160 1 1 0 661.5555234456192 649.096745845767 675.0653406933288 0 0 0
1147 1 1 0 674.2407453308605 648.5194392497615 644.5324460851289 0 0 1
806 1 1 0 676.1945144854066 647.5367925552426 667.3569088194014 0 0 0
163 1 1 0 646.2225086287511 665.5163033539413 652.767158760522 0 0 0
164 1 1 0 676.709984128645 647.3979786499426 669.8134052592989 0 0 0
165 1 1 0 659.1467000705474 649.7949904138659 677.7565581837898 0 0 0
166 1 1 0 659.8630035865973 649.9157313457213 676.580023914197 0 0 0
639 1 1 0 679.0646027133173 666.420263273028 676.2441913288768 0 0 0
168 1 1 0 653.4702089251618 674.8516650820388 647.2895330341137 0 0 0
169 1 1 0 649.5227972185507 672.7178444522552 646.0898043716815 0 0 0
170 1 1 0 653.5460430894535 676.7488280293957 664.7744736057585 0 0 0
171 1 1 0 666.841613028828 647.068382859359 674.7628367910982 0 0 0
172 1 1 0 665.6982461274486 647.921099274425 674.9325234879185 0 0 0
178 1 1 0 652.4382288972855 645.0192784447843 647.4857815862852 0 0 0
174 1 1 0 657.0494897345844 676.0229571821403 645.8608532234017 0 0 0
175 1 1 0 647.391291547648 659.680322727849 658.0519085767702 0 0 0
176 1 1 0 650.8780438535233 669.5377156538326 647.3352807476333 0 0 0
1711 1 1 0 667.9630112647728 655.9288012908969 644.6575250487006 0 0 1
2395 1 1 0 670.9446528046032 644.8642473943497 673.6006866644703 0 1 0
179 1 1 0 652.2133073538407 672.1027562173726 651.0516571321872 0 0 0
180 1 1 0 650.3243230655247 673.1396797853497 649.8231044770315 0 0 0
181 1 1 0 651.112542576885 674.3990672739355 649.9929806669279 0 0 0
182 1 1 0 648.4479406581282 668.2116590563917 650.0815233689583 0 0 0
183 1 1 0 651.6138350266773 675.1768199208792 648.9088207349686 0 0 0
211 1 1 0 660.1104761218736 679.411027481065 644.5674524942085 0 0 0
185 1 1 0 653.7136403792632 676.1912593256434 647.3395519055969 0 0 0
6 1 1 0 661.9820031892082 646.4391946926689 678.8871909572798 0 0 0
187 1 1 0 660.724386832257 654.4042746880264 660.9174353894864 0 0 0
188 1 1 0 652.9898196394474 672.1293114203179 647.8723015771865 0 0 0
189 1 1 0 663.1121127799024 646.8714460469464 678.0878474294744 0 0 0
262 1 1 0 666.675344156176 665.3830513783963 679.4238295519556 0 0 0
191 1 1 0 646.3390323163921 669.425206393978 650.4780304709035 0 0 0
471 1 1 0 678.3116727456932 665.3852107226855 661.9688700524678 0 0 0
70 1 1 0 666.1924804577504 675.5392813022241 644.9736646017027 0 0 0
4264 1 1 0 678.8285670757951 678.1948040577362 644.4918303034749 0 0 0
308 1 1 0 679.2478252461609 647.7680767310111 662.3827017458602 0 0 0
2435 1 1 0 675.2094049744022 647.09667840581 666.4169198804337 0 1 0
789 1 1 0 646.4507588687956 667.5782810168405 645.2253148980388 0 0 0
198 1 1 0 652.4516601277312 673.3772260565394 651.7938558901291 0 0 0
199 1 1 0 651.8284604967272 674.5189619740715 651.1857462368506 0 0 0
200 1 1 0 652.1906394821644 675.797222739209 651.6343569465397 0 0 0
201 1 1 0 652.1354229026097 676.4072614453205 649.2402946966826 0 0 0
202 1 1 0 652.3229967978309 676.7571938474761 650.5989026714367 0 0 0
203 1 1 0 652.9894247473569 677.040944225313 648.2913861224458 0 0 0
204 1 1 0 653.6303169635295 678.252148101481 648.6798020328108 0 0 0
205 1 1 0 655.427183969265 677.9585767000433 647.0937666517079 0 0 0
206 1 1 0 654.7088266313549 678.7537646516779 647.9514278445853 0 0 0
207 1 1 0 656.5464986312312 678.3371163778511 646.3943353860346 0 0 0
208 1 1 0 657.0884661006232 679.578345259299 646.5559737429215 0 0 0
209 1 1 0 658.9002241733407 679.0946563087389 645.0556517072372 0 0 0
125 1 1 0 646.4373708319318 655.1831783529087 663.956049632283 0 0 0
73 1 1 0 644.4332414648015 672.9159612564014 679.2764009784707 0 0 0
768 1 1 0 657.9750003541243 675.05403221691 645.4986920997325 0 0 0
177 1 1 0 644.5046320769546 659.9595819448743 655.7024137307709 0 0 0
779 1 1 0 644.1004431247347 670.6230093697607 676.3264058066492 0 0 0
133 1 1 0 644.2231385957798 666.0823283825316 648.6484307585359 0 0 0
247 1 1 0 644.415223760907 658.4812492927467 661.1115776224408 0 0 0
217 1 1 0 652.6119509723848 676.0375419436799 652.8922273842961 0 0 0
218 1 1 0 652.7423715916595 677.3452120728123 653.2856654033477 0 0 0
219 1 1 0 652.8762365215176 677.9673153812255 650.9689022990713 0 0 0
220 1 1 0 653.0497865407239 678.3269455313325 652.3051490791721 0 0 0
221 1 1 0 653.3500033221873 678.7789411161198 649.936170769879 0 0 0
222 1 1 0 654.0124279275096 680.0124403157585 650.3059099153218 0 0 0
223 1 1 0 655.3253727653158 679.9481614249107 648.3030335387409 0 0 0
751 1 1 0 678.7293476207352 666.0647474565213 667.0622445413502 0 0 0
757 1 1 0 645.7800535990624 680.2399363372057 670.2139602447172 0 0 0
634 1 1 0 679.7137748851135 667.9874286047811 668.8907606467903 0 0 0
747 1 1 0 645.3580247359738 665.4467954270781 648.1080021150108 0 0 0
755 1 1 0 673.3503728746462 667.0105649863299 677.7382449485328 0 0 0
785 1 1 0 673.9538804432343 650.3146700297452 645.9572743201877 0 0 0
559 1 1 0 647.2058122535559 666.0389004909296 669.9697289000494 0 0 0
558 1 1 0 647.1213103545017 665.0407520389016 668.9904339342016 0 0 0
232 1 1 0 677.5921413887476 667.4654932018767 679.0916687924479 0 0 0
233 1 1 0 657.8184168688431 673.6900072625241 645.8432516014147 0 0 0
735 1 1 0 671.3140019880548 651.2142170955989 646.7322813271 0 0 0
235 1 1 0 652.9517311084812 677.6091524677639 654.59991969441 0 0 0
236 1 1 0 653.1929603375149 678.9463169438807 654.9225694734216 0 0 0
237 1 1 0 653.5564484902142 679.548786631556 652.6181763761716 0 0 0
238 1 1 0 653.549141433005 679.9094153877534 653.9485913100777 0 0 0
2607 1 1 0 647.3420277841223 644.3064544047337 675.488709934689 0 1 0
787 1 1 0 647.8963503513273 671.0392316836663 645.5271009697249 0 0 0
799 1 1 0 675.0073638233503 649.482432210431 645.1770859587331 0 0 0
758 1 1 0 648.2128646154324 679.6772713997013 668.8617425982236 0 0 0
772 1 1 0 661.5074244658026 645.1252139561952 678.841673719497 0 0 0
244 1 1 0 647.1311812696829 673.2345529312669 646.180891988009 0 0 0
1543 1 1 0 676.3529537746165 649.5236543417318 644.7428829495152 0 0 1
776 1 1 0 652.7461618245113 679.1103143469855 664.7226482897681 0 0 0
2680 1 1 0 679.062661091062 645.4220944840155 663.0543184882207 0 1 0
4284 1 1 0 678.7437549732076 677.5397188330053 646.772775656902 0 0 0
682 1 1 0 661.4482553675479 653.0651380086516 679.4273341426074 0 0 0
250 1 1 0 653.2563036133556 646.1272283414349 647.0677344853995 0 0 0
251 1 1 0 655.6642268578489 674.265165245039 646.681337062955 0 0 0
784 1 1 0 655.1321556550735 644.9284412138629 679.26329471438 0 0 0
253 1 1 0 653.1778524394059 679.3855868292806 656.2353618106483 0 0 0
749 1 1 0 679.228338268422 665.4989628261828 665.6220018898395 0 0 0
746 1 1 0 646.6061272562627 666.1355141181738 648.4647015073059 0 0 0
2336 1 1 0 673.723173868142 645.6492652811327 672.1016805173997 0 1 0
775 1 1 0 650.1827473525955 670.3998560885642 646.3214976829257 0 0 0
791 1 1 0 647.1640638307214 673.484345215378 647.5841626564993 0 0 0
530 1 1 0 658.8549688977298 652.9870012964373 679.4973337977929 0 0 0
260 1 1 0 669.4203821418217 665.8072159724342 676.7481623446662 0 0 0
261 1 1 0 674.3290714296842 653.5194127590785 647.9733808999829 0 0 0
46 1 1 0 644.0949631067837 666.5140666758831 650.0364935642294 0 0 0
263 1 1 0 670.0100616833461 666.9833206152502 676.2186590544386 0 0 0
2125 1 1 0 671.8819357810338 646.5979373626591 670.7526330635856 0 1 0
2149 1 1 0 654.8032109407275 645.6502989293696 652.7826996619268 0 1 0
266 1 1 0 645.9007984121006 672.9796734089663 645.5401542466172 0 0 0
267 1 1 0 674.5284348453696 653.4677056020032 645.5630682793641 0 0 0
1716 1 1 0 664.8869510056533 671.024799559503 644.686359879639 0 0 1
2625 1 1 0 648.5551880555714 644.2195718788303 674.7237562699182 0 1 0
507 1 1 0 647.0269598581069 668.4910145468091 669.0348080901978 0 0 0
1545 1 1 0 652.4145715974607 645.2657317831018 645.1753963322327 0 0 1
2545 1 1 0 678.7294879160345 645.4173515276493 659.420711312225 0 1 0
523 1 1 0 646.4717118169805 672.1430506488703 672.0604207634882 0 0 0
2268 1 1 0 673.4296051057366 646.1540380517501 673.375876048675 0 1 0
720 1 1 0 678.689608869023 647.5737154512344 671.0575839195617 0 0 0
276 1 1 0 674.1153086344943 647.2744583003677 670.4471504282803 0 0 0
517 1 1 0 647.2967758976395 669.3816852862057 671.6575434865773 0 0 0
752 1 1 0 673.7047666784872 651.4353194435553 646.8532939805542 0 0 0
279 1 1 0 673.3463490262653 653.3019904494207 649.0065305182167 0 0 0
1750 1 1 0 676.8565098700828 644.564997116112 663.4930450449898 0 1 0
2608 1 1 0 668.8203745291719 645.0416461360287 674.7454842979865 0 1 0
282 1 1 0 676.6854430434497 666.4182479191167 677.2144123186549 0 0 0
283 1 1 0 647.8603197005116 659.0595933121077 659.2497657721088 0 0 0
284 1 1 0 645.5165930348537 662.7656945305425 653.2399015232762 0 0 0
69 1 1 0 652.0091131811101 644.430300071949 646.3042976120555 0 0 0
1834 1 1 0 669.0143127600985 679.6085113876293 679.4598934728318 0 0 0
287 1 1 0 647.0009526227839 666.2248694905113 649.8034195738371 0 0 0
288 1 1 0 657.3902409809664 677.3673922330744 645.7867562007708 0 0 0
2131 1 1 0 656.1956083184649 645.8932126460098 654.8017687362676 0 1 0
4287 1 1 0 679.6824242500029 679.8372757977144 661.0200820151927 0 0 0
652 1 1 0 646.4743692396303 675.7521433796746 671.5971621703312 0 0 0
258 1 1 0 673.2413621530793 646.4319719747023 671.0429057272928 0 0 0
2636 1 1 0 662.2094709115933 644.2424890182352 678.0585413529202 0 1 0
294 1 1 0 676.4007716227915 667.3476541195627 678.2800914897508 0 0 0
295 1 1 0 672.4573448080939 651.5319583234162 647.5010817925495 0 0 0
296 1 1 0 676.2011766549823 647.03583169547 671.1443282906735 0 0 0
297 1 1 0 647.0565010600521 666.7296215734002 646.1378622792611 0 0 0
298 1 1 0 648.1887706242837 666.8504278818415 650.1892353389145 0 0 0
783 1 1 0 659.3267627593378 676.7456496363466 644.5230085663383 0 0 0
544 1 1 0 644.664489629036 661.807543532288 653.9165114660101 0 0 0
274 1 1 0 675.2085280084048 652.9240326338909 644.5247327752315 0 0 0
302 1 1 0 651.4531306319684 670.4001743421134 648.3633418510424 0 0 0
303 1 1 0 668.263746268857 655.6844707488211 645.9613061146167 0 0 0
2502 1 1 0 675.9961104003772 645.669716657346 663.0865492179248 0 1 0
703 1 1 0 661.0464097085421 647.4350989339853 679.2799240322211 0 0 0
728 1 1 0 663.8950950800604 655.294317845364 679.635345940827 0 0 0
307 1 1 0 646.6086781379134 664.3874007182159 646.2037700920373 0 0 0
797 1 1 0 645.6815564698749 667.2502458623862 651.6560169273705 0 0 0
1248 1 1 0 663.1049345458291 644.3939057201035 644.7188619968723 0 0 1
310 1 1 0 673.4305883209588 647.5858451685126 673.3724081769592 0 0 0
311 1 1 0 669.3645980127062 663.2329983787117 657.1292979946504 0 0 0
312 1 1 0 668.8500608287267 662.2389225550568 656.1295112328072 0 0 0
313 1 1 0 670.5942919938346 663.6225162948459 657.9088342375244 0 0 0
314 1 1 0 668.359975615636 662.9424247900373 658.2189979326325 0 0 0
315 1 1 0 670.496738703796 662.9001181279265 659.1691778244311 0 0 0
316 1 1 0 671.4168005988006 662.0791102415826 659.6340150554927 0 0 0
317 1 1 0 669.073588803787 662.8132659665542 659.459301329795 0 0 0
318 1 1 0 668.6103892274407 663.2278810346838 661.7077668163475 0 0 0
319 1 1 0 657.828162879091 651.3616386802485 656.4108343209235 0 0 0
320 1 1 0 656.8683298048596 650.2863497803417 656.2413374469475 0 0 0
321 1 1 0 659.2157381732318 650.9625835264724 656.2525218557303 0 0 0
322 1 1 0 659.4158745109372 649.4677878631138 656.4107947217756 0 0 0
323 1 1 0 657.2799285290077 649.3222854980264 655.1841065125607 0 0 0
324 1 1 0 656.5104865015625 648.2601114478389 654.6263699479786 0 0 0
325 1 1 0 658.5535887214464 648.6668301547137 655.6800528431025 0 0 0
326 1 1 0 658.0070592605355 647.5045562618932 656.3939008837558 0 0 0
1710 1 1 0 663.6671445999705 671.778164837288 644.3849160763754 0 0 1
741 1 1 0 670.1891153704389 652.0580652073919 646.7773740065156 0 0 0
329 1 1 0 674.2780384119249 667.8907754732329 677.2073135688772 0 0 0
3662 1 1 0 644.6839742876826 652.4518629322874 661.9964319257475 1 0 0
331 1 1 0 672.5144983704247 655.3912606945233 645.9930936987246 0 0 0
1773 1 1 0 672.4745234106282 644.4824183795016 666.2411892826632 0 1 0
333 1 1 0 677.9976491381634 647.8398896081624 669.8605030868209 0 0 0
2100 1 1 0 678.5986542407642 646.6996018713469 662.8425188947435 0 1 0
740 1 1 0 658.189511517655 671.6796705103394 646.7810741849959 0 0 0
336 1 1 0 672.2924623591798 652.526422025792 648.5002035135285 0 0 0
337 1 1 0 655.1641360572544 678.7591507329371 660.3342001130405 0 0 0
338 1 1 0 664.941444695903 668.1077644453426 645.3414716996051 0 0 0
4283 1 1 0 678.8004913924582 677.8742581593134 648.1389063495011 0 0 0
72 1 1 0 646.2751668726611 655.5981764428661 662.6184326413818 0 0 0
341 1 1 0 655.9116844025416 675.6669319708334 646.5672390980302 0 0 0
769 1 1 0 653.1311549049979 671.387584202095 650.1264877208481 0 0 0
2284 1 1 0 655.7671060516951 646.3721638086588 653.5285729146597 0 1 0
344 1 1 0 666.2440693938721 666.4569110034761 678.5924862914762 0 0 0
345 1 1 0 677.3952480598077 648.2288523160556 666.8610386067311 0 0 0
803 1 1 0 654.7095904696031 646.4177311818221 657.0729918140036 0 0 0
347 1 1 0 673.8649181920764 654.7311121035967 645.9536125400208 0 0 0
348 1 1 0 645.4507078787791 668.647838577163 645.5304662641327 0 0 0
289 1 1 0 648.035706776409 665.4081759139078 644.4615401243415 0 0 0
110 1 1 0 658.6994383767428 648.2080474166554 680.1374059506855 0 0 0
351 1 1 0 655.5760429817337 671.4376107121944 649.3299977679312 0 0 0
352 1 1 0 658.490062348713 677.7560266548456 645.0381553653928 0 0 0
353 1 1 0 667.7640610532919 664.2855481483515 677.6525272788278 0 0 0
124 1 1 0 678.0670020640895 666.2507799002998 679.6564722954618 0 0 0
355 1 1 0 674.5154582525739 648.1717330975011 672.682355673782 0 0 0
356 1 1 0 666.9590406032639 660.0988665909501 645.6058691837246 0 0 0
807 1 1 0 668.504165528048 653.1994596228359 645.538685673536 0 0 0
526 1 1 0 645.5561595526572 671.2360524979086 674.2398884946143 0 0 0
359 1 1 0 648.1956723341901 672.4442679292006 645.7025831970759 0 0 0
159 1 1 0 656.8702406766406 646.8168897741276 679.5360905310426 0 0 0
1949 1 1 0 674.0031843803022 644.5001825889043 661.7246334961129 0 1 0
362 1 1 0 647.7042405112186 655.3940763632859 664.6196640636362 0 0 0
363 1 1 0 648.8935723418202 655.3822990563154 663.711465631484 0 0 0
843 1 1 0 653.3869990691315 646.1707588026343 645.6536669218424 0 0 1
711 1 1 0 672.6604555248762 649.783590004934 645.4182253035278 0 0 0
366 1 1 0 647.5127018692788 655.7761383225284 661.8757662458584 0 0 0
367 1 1 0 647.7851527660763 657.0855622450644 661.3361692144932 0 0 0
368 1 1 0 648.6527300972621 655.0826289000014 662.3589205753964 0 0 0
369 1 1 0 649.7930713619702 655.2969111203922 661.4894519582166 0 0 0
370 1 1 0 667.3756283910006 658.7462583368522 645.5868610773084 0 0 0
795 1 1 0 655.1166076008354 677.4416144447887 660.9374647963492 0 0 0
372 1 1 0 649.0663845498717 657.4123270634149 660.7657427591477 0 0 0
373 1 1 0 649.0317244628534 658.4598864484954 659.810812008416 0 0 0
374 1 1 0 650.146398599136 656.6262110386518 661.305975881201 0 0 0
375 1 1 0 651.0808654297522 657.1518141388796 662.2417318201851 0 0 0
376 1 1 0 661.7919579306847 657.0047375875656 657.2194764986262 0 0 0
377 1 1 0 663.7212507247621 657.7832039813295 655.6271187698824 0 0 0
378 1 1 0 664.9647861612448 658.4658680798316 655.6598272156666 0 0 0
379 1 1 0 665.7788520471039 659.0604962078771 654.6685453653449 0 0 0
380 1 1 0 667.0651050599665 659.6767245862259 654.9464215914583 0 0 0
381 1 1 0 668.1887239764309 659.3645818408993 654.164022258945 0 0 0
382 1 1 0 661.959357184231 656.7783745218891 660.7167146632976 0 0 0
383 1 1 0 662.559674684871 657.8781980739574 661.3710554178513 0 0 0
384 1 1 0 663.993683401457 657.9955771487857 661.2080591171926 0 0 0
385 1 1 0 664.8704676025262 658.976260774448 661.7880527759237 0 0 0
386 1 1 0 665.9084160140434 659.5665700225437 661.0052620414971 0 0 0
387 1 1 0 666.8083658260641 660.5664900596161 661.3566060989277 0 0 0
388 1 1 0 667.425150816659 661.4227385685992 660.3928755424392 0 0 0
389 1 1 0 668.3488978636203 662.4364879096304 660.6221093436259 0 0 0
390 1 1 0 662.8295587471558 655.6221142603553 660.7747490265056 0 0 0
391 1 1 0 663.9827338258165 655.968887042407 659.955325208554 0 0 0
392 1 1 0 662.4892755923798 655.0423748080941 658.3491965524836 0 0 0
393 1 1 0 663.7838534761655 655.6975788464229 658.5833238447059 0 0 0
394 1 1 0 661.4280616327351 656.1277544714457 658.2814674426829 0 0 0
395 1 1 0 664.5885275733608 657.1958470029333 660.2184927876712 0 0 0
396 1 1 0 665.4533514298157 657.9124508064359 659.2952423897411 0 0 0
397 1 1 0 664.1069744336613 656.7132420873356 657.7238108987972 0 0 0
398 1 1 0 665.1715451536871 657.6138708765408 657.9616476284665 0 0 0
399 1 1 0 663.0861572846499 657.1942192549895 656.7650569157356 0 0 0
400 1 1 0 666.0290290094508 659.0917672268536 659.6800234670798 0 0 0
401 1 1 0 666.4793316243198 659.9198185344899 658.6556840155167 0 0 0
402 1 1 0 665.5310905220576 658.5214083705638 656.9620144044902 0 0 0
403 1 1 0 666.4410663475671 659.5233005501 657.2875004002753 0 0 0
404 1 1 0 667.073261079775 661.1425478339346 658.99165747941 0 0 0
405 1 1 0 667.4459570435746 661.9295025866395 657.9162448879787 0 0 0
406 1 1 0 667.1577844629047 660.2227854668646 656.2359243630116 0 0 0
407 1 1 0 667.6809389467142 661.4776002855051 656.5671898296612 0 0 0
2057 1 1 0 676.0347305032986 645.3514433475411 660.7732967443743 0 1 0
794 1 1 0 646.1202737256642 666.1349166795662 650.8563949356999 0 0 0
577 1 1 0 663.4349939163149 650.8569618005132 679.0965982218551 0 0 0
411 1 1 0 652.0071352050692 673.0944818790542 647.8853669328508 0 0 0
3535 1 1 0 679.6961417910358 675.72663704702 648.4963071389476 0 0 0
173 1 1 0 644.3542518687541 658.3892953924546 657.5511834207426 0 0 0
414 1 1 0 658.1914822554976 653.635688138904 657.7353067185051 0 0 0
415 1 1 0 656.720364235164 653.8061747146917 659.6896307430109 0 0 0
416 1 1 0 656.5162602082761 654.3927654710288 661.1021573168904 0 0 0
417 1 1 0 657.4997271056613 652.3677581813647 657.4088531942165 0 0 0
418 1 1 0 656.8362152029731 651.7463958360121 658.5499110461266 0 0 0
419 1 1 0 656.4071474580835 649.6826257649751 657.4625397968424 0 0 0
420 1 1 0 656.8237656688854 650.3290412486896 658.601014585264 0 0 0
421 1 1 0 656.4039807878352 648.2665178367171 657.6643735788647 0 0 0
422 1 1 0 657.8184853983113 647.8291826599483 657.8628044477615 0 0 0
423 1 1 0 656.9361564520622 652.4162960025864 659.7502709581647 0 0 0
424 1 1 0 658.0122996290534 651.9555083760758 660.594061905785 0 0 0
425 1 1 0 657.9409684751394 649.8029147655482 659.2721744242673 0 0 0
426 1 1 0 658.5834873885544 648.7515773609847 658.5254576442067 0 0 0
427 1 1 0 657.7858964777831 654.4183267155785 658.9046789554922 0 0 0