LAMMPS data file via write_data, version 2 Aug 2023, timestep = 50000, units = metal

21968 atoms
1 atom types

634.4925010901851 733.9414989098108 xlo xhi
635.0041951364302 734.1388048635787 ylo yhi
634.8411086536724 734.3018913463364 zlo zhi

Masses

1 12.0107

Atoms # full

1 1 1 0 641.180787984999 673.3353273160096 662.7361437164336 0 0 0
2 1 1 0 667.6571138619016 646.59009016027 635.2146761872345 0 0 0
383 1 1 0 661.5363417316199 657.7906598304619 635.1089314443997 0 0 0
4 1 1 0 640.382562295069 635.5458709941803 651.4338042076483 0 0 0
2588 1 1 0 655.9184391749786 645.9284831953872 635.6741203491536 0 0 0
6 1 1 0 672.837287410571 683.0752537744481 683.9277669091964 0 0 0
7 1 1 0 658.9697135627899 637.6648016703066 675.205450181704 0 0 0
8 1 1 0 636.8886229871962 673.9609079789684 637.3706184045344 0 0 0
2623 1 1 0 649.0693237887098 675.610245096862 635.224476824853 0 0 0
10 1 1 0 657.0104453532309 636.8110261527022 674.1794015111567 0 0 0
11 1 1 0 635.5776286882411 644.046517669693 659.4558448413419 0 0 0
12 1 1 0 641.3962147366957 636.8180436081062 682.8688593719698 0 0 0
13601 1 1 0 635.3580718371408 680.7848421316619 664.4238208650262 1 0 0
14 1 1 0 654.3790285555889 650.3178935217821 635.7075449338041 0 0 0
22 1 1 0 642.6059891538781 636.6225439457498 682.2401484428583 0 0 0
16 1 1 0 664.2530900160203 640.326389290853 682.4803104118758 0 0 0
17 1 1 0 653.1136320839057 683.2937231733201 670.7812364247869 0 0 0
2036 1 1 0 683.7442167795832 642.6548237988453 635.793402866333 0 0 0
2233 1 1 0 684.0055467797996 639.633152152519 637.0214646545351 0 0 0
20 1 1 0 659.6760272655159 677.1842459067188 644.8346414791512 0 0 0
21 1 1 0 660.9724680151091 638.6117204704301 676.3105164742288 0 0 0
7514 1 1 0 648.214229624086 635.1496308121133 680.2695913960565 0 1 0
13539 1 1 0 635.11748899553 652.0824172919121 662.1670534140352 1 0 0
3306 1 1 0 679.869788856189 645.0884596941294 635.8111302559316 0 0 1
25 1 1 0 681.2048742315138 646.6963853808008 636.7576107840456 0 0 0
26 1 1 0 644.3943738577616 651.5362693794077 643.5400551405324 0 0 0
27 1 1 0 665.8141501182827 674.3767933052695 643.8005435420723 0 0 0
1971 1 1 0 684.1814685607479 659.4733716181383 679.9549727810311 0 0 0
29 1 1 0 637.7788783284071 678.4268915383625 663.2619467636632 0 0 0
30 1 1 0 637.8863961182352 672.4853657916772 662.8054475143122 0 0 0
31 1 1 0 653.5403236325552 683.3921491778004 673.3840039514224 0 0 0
32 1 1 0 660.5289738915926 678.3080031566903 647.1542764501704 0 0 0
33 1 1 0 664.5289867204201 673.8696813257179 643.5011777761246 0 0 0
34 1 1 0 653.6811772142884 683.3185307625082 674.7835892983476 0 0 0
7447 1 1 0 639.3972156742931 635.9413002473093 683.4766801171494 0 1 0
3402 1 1 0 638.0612417481103 666.6455351907956 684.2044104290825 0 0 0
37 1 1 0 646.1063469544691 650.7625983112738 636.8876934155666 0 0 0
38 1 1 0 659.0969494587168 675.2416699384428 642.8552461806413 0 0 0
2636 1 1 0 654.8763394087182 637.8953265178085 677.9851833131696 0 0 0
1094 1 1 0 672.709408118979 653.2370829458908 684.0920881362965 0 0 0
13524 1 1 0 635.1955536810026 674.108299928318 659.3698055344171 1 0 0
42 1 1 0 661.3277275546083 679.1430298742273 647.9556961886483 0 0 0
2629 1 1 0 651.7762517253607 684.4632361865974 665.780552426925 0 0 0
44 1 1 0 683.1032210636303 675.3728428756066 636.343392179672 0 0 0
5365 1 1 0 651.7087179215204 636.6902890780233 684.0779185656288 0 0 0
46 1 1 0 678.0860027311486 675.8403106997309 637.6037053539036 0 0 0
47 1 1 0 636.3780193364565 674.3440401655757 636.1412441565194 0 0 0
48 1 1 0 636.2458440747093 639.281584845832 677.8659972068735 0 0 0
49 1 1 0 664.5717538788268 638.2882170957243 679.463764296323 0 0 0
10440 1 1 0 635.1244900886312 675.7069403366856 648.3853442001331 1 0 0
51 1 1 0 665.246977358298 639.8861291214662 681.2543535282663 0 0 0
52 1 1 0 675.8498868711571 675.8682881620246 639.5587913137565 0 0 0
53 1 1 0 658.1712812341644 639.0473404602342 678.5209126597094 0 0 0
54 1 1 0 673.3859825181709 679.6967794452457 640.7209599500678 0 0 0
55 1 1 0 653.7843189604271 682.1342332987355 672.7459488075192 0 0 0
56 1 1 0 636.2278258989752 660.0231201567148 654.5461638606151 0 0 0
239 1 1 0 650.3574623503637 636.878498645462 683.6135673793614 0 0 0
58 1 1 0 660.5600832449846 677.7990463077157 645.7940692889553 0 0 0
465 1 1 0 676.3187508334499 665.6844035770874 684.1320422805459 0 0 0
1756 1 1 0 676.9007441152146 684.3142108297791 642.2861143828278 0 0 0
61 1 1 0 647.2701588889389 651.3470562138132 636.3560574484254 0 0 0
62 1 1 0 665.0437711295842 637.3812065212724 681.6751825191647 0 0 0
2624 1 1 0 671.3989903753557 651.563996720375 635.1605877964805 0 0 0
64 1 1 0 645.1562668649467 650.2432743964484 636.0349860406234 0 0 0
65 1 1 0 662.8621750191655 679.2348364791658 647.4698542858443 0 0 0
66 1 1 0 638.0236353109162 645.990363865306 643.9663967333021 0 0 0
1402 1 1 0 683.9612829115564 658.9847770264399 661.677598925807 0 0 0
68 1 1 0 676.8141718224955 676.6148859902462 637.4407861146506 0 0 0
69 1 1 0 635.4436611218615 675.3411940045385 640.1378200831549 0 0 0
70 1 1 0 674.5331903798262 677.2826098681498 638.2492183554812 0 0 0
71 1 1 0 655.7534015791565 682.4827814902347 678.369378566176 0 0 0
72 1 1 0 659.7960617546695 676.3946074682239 643.5912917143723 0 0 0
73 1 1 0 639.1511301642148 676.6729799022872 666.9600603903855 0 0 0
2166 1 1 0 656.1471022530047 683.9330581589759 668.8766378528811 0 0 0
75 1 1 0 640.5096416993263 675.2026882957912 664.1955550677341 0 0 0
76 1 1 0 671.6424396764506 675.5379054317465 641.9548332400976 0 0 0
77 1 1 0 678.206625911616 675.1011475203618 638.8497842582615 0 0 0
78 1 1 0 661.4942855190405 676.0075200512271 641.8950238474871 0 0 0
79 1 1 0 668.989086352936 675.0648742892924 641.0566498058027 0 0 0
80 1 1 0 682.4111441490697 678.750837882624 636.0625492325872 0 0 0
81 1 1 0 663.4298202726106 677.515107192187 643.3127626482766 0 0 0
82 1 1 0 649.6783191450492 673.1986523540234 635.7017182918202 0 0 0
83 1 1 0 639.6416514963564 651.4092107733312 660.7854960589576 0 0 0
84 1 1 0 637.4436400923149 646.9122611712389 662.039116599923 0 0 0
229 1 1 0 634.7988711174941 676.7645545335096 665.5759452594658 0 0 0
86 1 1 0 648.6723770907342 669.7594713444792 675.6500640386097 0 0 0
87 1 1 0 636.8440728044937 668.951821193539 655.0847739560882 0 0 0
88 1 1 0 660.3743128889024 637.0077012652013 672.8169993675848 0 0 0
89 1 1 0 639.0767701847244 675.2903396843732 666.6569459244839 0 0 0
90 1 1 0 661.4613214416989 655.3045457719644 637.5654591281457 0 0 0
91 1 1 0 674.0877972673509 679.3081975296169 643.2248041809012 0 0 0
92 1 1 0 661.1580569527173 676.5150654422807 643.140415777788 0 0 0
93 1 1 0 638.2900336900057 648.899686144586 663.0595655372749 0 0 0
94 1 1 0 663.9684710868072 637.9341809118337 678.2243933436218 0 0 0
95 1 1 0 661.1955100538063 673.8281727245815 640.3118689418908 0 0 0
96 1 1 0 639.168047119234 671.9044464892502 662.6260809334952 0 0 0
2148 1 1 0 644.5708983326616 635.6577809833128 680.2599975747204 0 0 0
98 1 1 0 641.2006689771847 674.7342471440724 663.003783883652 0 0 0
99 1 1 0 640.4441724001933 655.6121904390884 653.1462166784573 0 0 0
9 1 1 0 665.345292855807 636.2473656759117 682.4922352508215 0 0 0
101 1 1 0 635.6637124088734 641.485206583467 661.982926458023 0 0 0
4094 1 1 0 655.6450211294834 682.5006380408181 684.3667406746277 0 0 0
103 1 1 0 637.7138507337064 665.913511616349 653.1566856048258 0 0 0
104 1 1 0 638.397877717346 655.7594212150486 654.6350658236232 0 0 0
105 1 1 0 640.1886034775289 664.7943978577874 653.4823504706402 0 0 0
106 1 1 0 638.3524700074769 658.5042934232631 653.9144784197827 0 0 0
107 1 1 0 638.1088523699684 673.2071487291903 645.7855087424157 0 0 0
108 1 1 0 640.6280594152603 674.2137340491629 665.1711128971 0 0 0
109 1 1 0 635.3169675735035 669.1363806213357 659.6917363825487 0 0 0
110 1 1 0 640.6717417005956 659.5229794741188 652.8155142298219 0 0 0
111 1 1 0 638.8121420273933 678.9685973808952 666.8798342581232 0 0 0
112 1 1 0 662.4393774441409 638.8068094761348 683.2233326179015 0 0 0
113 1 1 0 638.722762379926 678.4555839292573 664.4068077351417 0 0 0
114 1 1 0 658.8339120357879 639.078260537071 679.7529288775551 0 0 0
115 1 1 0 669.5619280731188 681.3042473372634 682.3636210352204 0 0 0
116 1 1 0 638.9914783734265 642.1840346539452 654.6148629028912 0 0 0
117 1 1 0 637.85366073211 638.519100957238 650.0329906818033 0 0 0
118 1 1 0 636.2039466252907 658.6581948025856 654.9145706809724 0 0 0
255 1 1 0 665.5032181494876 653.2973477674731 635.5185629522355 0 0 0
2231 1 1 0 677.1844767526864 684.1683431390603 639.9139502976075 0 0 0
121 1 1 0 664.6070117889938 677.784937826382 644.291835480729 0 0 0
7411 1 1 0 654.5489112292299 636.2646166745812 683.1254730815946 0 1 0
577 1 1 0 645.8805504368477 635.3335042263028 679.630823669381 0 0 0
124 1 1 0 654.7714505467203 682.7683320216094 677.3597264992657 0 0 0
125 1 1 0 638.4884065846877 679.3411787407489 665.5459622368631 0 0 0
4980 1 1 0 672.4364431150225 642.3350732073364 684.0797282438239 0 0 0
127 1 1 0 638.03676245721 636.6962377226445 657.9915035934273 0 0 0
128 1 1 0 638.168570013768 675.0812175909368 665.3855998115413 0 0 0
129 1 1 0 638.6036592869212 639.746274654841 651.9580778369403 0 0 0
130 1 1 0 654.1632002558443 682.4386698770613 671.3860443156532 0 0 0
2389 1 1 0 683.3778534344036 676.3020395060186 641.5445788197231 0 0 0
132 1 1 0 636.0337118520752 636.8516334576093 678.0549681203698 0 0 0
1083 1 1 0 683.539865024375 663.1517654140719 656.4705188449989 0 0 0
134 1 1 0 638.092195884206 665.5714383282966 654.5876564663587 0 0 0
135 1 1 0 639.7725257033212 673.1534444371515 664.6857526369719 0 0 0
12731 1 1 0 635.8989627379274 675.8255025496505 650.8099027377577 1 0 0
137 1 1 0 639.4767372050297 677.3833842996019 664.7856850429449 0 0 0
138 1 1 0 662.3327875296847 638.284827211216 676.5618253687456 0 0 0
139 1 1 0 636.3532475397822 638.5117156629825 647.909397696613 0 0 0
140 1 1 0 636.4732304204459 639.4908814583588 659.3576132644971 0 0 0
389 1 1 0 637.5440686816015 635.4667360411299 649.1823838722395 0 0 0
142 1 1 0 671.7175496323459 668.7984136330997 684.0895310618806 0 0 0
143 1 1 0 659.1507576402722 636.2078943571216 673.2360003162943 0 0 0
144 1 1 0 638.3274978811224 646.681460259178 645.2421879672199 0 0 0
2012 1 1 0 684.0491961479181 662.8149396579805 666.3358057638526 0 0 0
146 1 1 0 661.9208083643373 677.7421125591225 645.3776086398251 0 0 0
5370 1 1 0 635.5754992891959 638.950537879661 683.2154868875457 0 0 0
2540 1 1 0 680.9699764559351 635.3723104157884 659.1085298914812 0 0 0
149 1 1 0 639.1074374487825 675.9697331360546 664.2771409225855 0 0 0
150 1 1 0 642.1945891443341 676.9600633298174 671.0685820629075 0 0 0
151 1 1 0 662.7139435167073 673.835093894217 640.7305205283396 0 0 0
1059 1 1 0 634.8120104042315 674.1332595618438 639.7579741700508 0 0 0
153 1 1 0 664.2252676528528 636.5124196542073 659.0525390371511 0 0 0
154 1 1 0 635.1357927622312 644.2846654667305 639.6698700536051 0 0 0
155 1 1 0 661.8289342323567 636.1384936910373 657.541313000448 0 0 0
156 1 1 0 653.2111309867746 682.1494673370444 675.4564458157365 0 0 0
157 1 1 0 636.7850424392753 679.4413887806746 663.0874234855288 0 0 0
172 1 1 0 676.245163254499 669.8942595379729 684.2343551488907 0 0 0
159 1 1 0 637.3988013142598 639.3547161624912 658.2830321205872 0 0 0
160 1 1 0 662.9604111869453 639.9728859820073 679.9275379083165 0 0 0
161 1 1 0 638.048989739643 637.335142287269 681.8780693022197 0 0 0
162 1 1 0 644.632187401119 672.8793994445404 636.2740589536535 0 0 0
163 1 1 0 660.8838378820467 639.4705595845154 681.0254399518633 0 0 0
164 1 1 0 658.1962322704827 638.2370063122045 676.2496630526297 0 0 0
165 1 1 0 650.3619163032316 636.5624069946547 682.2065698938734 0 0 0
166 1 1 0 640.3383111180507 674.6778684943748 666.5560597344555 0 0 0
12883 1 1 0 634.5674891330327 676.5164340161597 652.7124920783727 1 0 0
168 1 1 0 645.0328701442056 673.1563175334564 637.5950497551227 0 0 0
169 1 1 0 665.4719718660326 638.581267942507 682.1815960011728 0 0 0
170 1 1 0 662.2369698564812 676.8912144535519 644.1209350459095 0 0 0
171 1 1 0 638.4117058194438 639.6889974291247 650.5893576765337 0 0 0
1647 1 1 0 638.6586780757771 635.4938121999223 653.6849541907019 0 0 0
173 1 1 0 649.3057931325227 651.4942403166302 639.4498208634424 0 0 0
174 1 1 0 646.6777472069714 651.2780695008682 640.5221787004505 0 0 0
175 1 1 0 654.6018661600718 647.9904476336371 636.9021240575454 0 0 0
176 1 1 0 680.972924736763 636.4044328013497 660.0803946331068 0 0 0
177 1 1 0 654.5170610955217 649.1059952778006 637.7511820556462 0 0 0
178 1 1 0 654.542252355808 649.1612901388748 639.1274740940443 0 0 0
179 1 1 0 652.9901679180099 650.9971717507688 639.0800636460876 0 0 0
180 1 1 0 653.9385336544632 650.2019971325652 639.7391741892756 0 0 0
181 1 1 0 651.7636302575115 651.2779171179445 639.6713714484489 0 0 0
182 1 1 0 651.5183863048558 651.1805395045263 641.0049700805014 0 0 0
183 1 1 0 649.0766326581637 651.3338862912308 640.8049454084114 0 0 0
184 1 1 0 650.250110620772 651.1716187361964 641.5589088627348 0 0 0
185 1 1 0 647.771224264266 651.2753750611218 641.3849797926284 0 0 0
186 1 1 0 647.6853995988912 651.1901236429003 642.7118889281452 0 0 0
187 1 1 0 640.6857932126388 658.2329406080306 653.2905338761193 0 0 0
1570 1 1 0 664.6171093659354 683.824375789027 659.6377695411443 0 0 0
189 1 1 0 652.1017467705723 651.5569211994214 636.887626684179 0 0 0
190 1 1 0 662.7946299575581 658.3288852071588 639.2579631022061 0 0 0
191 1 1 0 662.1879377674521 639.879539212336 681.1138511310418 0 0 0
192 1 1 0 648.2062067134528 651.4918466521201 638.6415606260439 0 0 0
193 1 1 0 641.8203289678897 660.2594993350268 652.3225988522822 0 0 0
194 1 1 0 648.4206532077875 668.1608601553339 679.2820021359487 0 0 0
644 1 1 0 667.4858318329636 683.7684188519763 659.589688539477 0 0 0
196 1 1 0 654.1518997052674 650.2791719339807 637.0923164119562 0 0 0
197 1 1 0 662.9299528800801 639.8008620524837 682.2964303328586 0 0 0
198 1 1 0 646.8561107039887 673.2610787033224 635.3563086296936 0 0 0
3016 1 1 0 655.1499790292596 636.7072009556249 684.3201366083235 0 0 0
200 1 1 0 646.904778913791 651.2650323779133 639.1483086686708 0 0 0
201 1 1 0 635.0986786256052 673.943139394157 635.59379621768 0 0 0
202 1 1 0 653.1434057330513 651.0314810643122 637.6826223155487 0 0 0
203 1 1 0 662.9221640625856 638.709334920365 677.7746049785329 0 0 0
204 1 1 0 650.9874582012801 672.3174384032305 635.6907193074363 0 0 0
205 1 1 0 666.360198029347 679.580034963241 645.742921492035 0 0 0
206 1 1 0 666.9552445141422 674.1231781764799 642.9408626720934 0 0 0
207 1 1 0 639.1400998490216 637.0938480945202 682.7121225311514 0 0 0
208 1 1 0 652.4046412211962 681.307520936707 674.6343831014093 0 0 0
3117 1 1 0 670.1144815149098 641.6780440163249 683.5772794451061 0 0 0
210 1 1 0 658.4098906137322 636.7909272362791 674.3096949412276 0 0 0
152 1 1 0 662.7633045390043 635.3905211777351 656.6827784842488 0 0 0
212 1 1 0 672.6711582819216 679.3308660604065 642.9603056140455 0 0 0
213 1 1 0 677.100250929649 675.2568532507986 639.7967631374584 0 0 0
214 1 1 0 662.8701901556047 678.5052840190226 646.0277709413081 0 0 0
215 1 1 0 662.5846508402632 659.7058782403343 639.4495902218987 0 0 0
216 1 1 0 636.7849844184478 637.0900967023542 679.2754392870527 0 0 0
217 1 1 0 635.9990478591263 662.6195638671096 653.5745080498359 0 0 0
218 1 1 0 669.6679027783111 675.5587517033708 645.0636636171444 0 0 0
219 1 1 0 660.226230737817 639.3353826215274 679.7974438857281 0 0 0
220 1 1 0 662.247157385242 639.5044525851679 678.7341475331405 0 0 0
221 1 1 0 660.3314194849663 637.9553648257578 675.1915304658494 0 0 0
222 1 1 0 638.4199224172114 673.7014397128354 664.7114011422424 0 0 0
223 1 1 0 639.4136911978587 637.5956204846956 651.655991411978 0 0 0
224 1 1 0 674.2517053378506 666.6671497039644 682.2972788197706 0 0 0
225 1 1 0 657.6232014089343 683.3144033643958 679.8903574738438 0 0 0
4301 1 1 0 641.6045968995123 643.4169077205551 683.5475536679985 0 0 0
1615 1 1 0 672.7549940517049 651.143379208778 635.613300956651 0 0 0
228 1 1 0 637.0401109683432 667.3358318235033 653.3677973709014 0 0 0
2299 1 1 0 653.0178786986048 636.2149845376218 673.6417984178654 0 0 0
13214 1 1 0 635.4166414014641 651.7579153976592 663.4891907187031 1 0 0
231 1 1 0 638.3468516790593 651.8185573356864 660.564091055755 0 0 0
232 1 1 0 637.2674858180089 673.3004294152179 658.6928857317745 0 0 0
233 1 1 0 636.7834750366244 653.8267728738919 658.9157796920241 0 0 0
234 1 1 0 637.5967543278376 674.2855192686659 656.5301878710218 0 0 0
235 1 1 0 682.670375551374 649.8990136795001 636.4738351114873 0 0 0
236 1 1 0 636.7077364969365 673.4282103427998 661.037710666584 0 0 0
2164 1 1 0 657.4216043304604 684.3253031876502 670.8404925859797 0 0 0
13486 1 1 0 635.1544041333442 655.661606158742 658.528718046463 1 0 0
2785 1 1 0 673.7053586870481 641.9865116658528 683.5341577657821 0 0 0
240 1 1 0 656.1793906527154 637.1884811393047 675.3017937311088 0 0 0
2252 1 1 0 668.0348584624577 683.2400469167869 667.6572642534126 0 0 0
242 1 1 0 656.7926401376486 637.8903028187013 676.3218978089511 0 0 0
2222 1 1 0 683.8447284081535 637.1303840807432 636.0749895753343 0 0 0
39 1 1 0 634.7274188592462 676.5043688745169 639.7410031604379 0 0 0
5366 1 1 0 637.2128795665918 644.3641470759771 682.9495837780726 0 0 0
246 1 1 0 655.346056212147 648.222980533611 635.7197052402229 0 0 0
342 1 1 0 684.1153325194996 636.4269961067357 660.9988095599733 0 0 0
2322 1 1 0 636.4230617779241 635.4969066283097 638.6713315159084 0 0 0
5364 1 1 0 635.3894854480862 641.3143588020694 683.5304322204005 0 0 0
1600 1 1 0 655.6944573473615 683.4914538532964 665.3704542648537 0 0 0
2607 1 1 0 663.3980258466758 635.1071584956283 659.2785998197809 0 0 0
768 1 1 0 635.0990367501527 662.2094036951141 654.5949754518916 0 0 0
253 1 1 0 666.047764145549 654.5017465515791 636.0332151252961 0 0 0
254 1 1 0 666.7352551182762 654.2572966878333 637.253892428909 0 0 0
13261 1 1 0 635.0449957995794 676.1345275972413 654.9141069053628 1 0 0
256 1 1 0 664.5651830800099 652.7496666352012 636.3552135674264 0 0 0
11870 1 1 0 635.3562320690734 675.8076369462541 653.5898919325086 1 0 0
258 1 1 0 663.9470128699596 651.4924338565089 636.2611825960867 0 0 0
259 1 1 0 665.2921734256845 649.3332489566803 635.7955271021939 0 0 0
260 1 1 0 665.6639238368157 649.9002758654999 637.0026030984692 0 0 0
261 1 1 0 668.6157764073062 650.3161595025485 636.0148878145659 0 0 0
262 1 1 0 667.3151633828766 650.2451314833219 637.0715115840728 0 0 0
263 1 1 0 669.086733361106 651.6556305392216 635.8467314181116 0 0 0
264 1 1 0 668.26878897591 652.842628573158 635.7613901807173 0 0 0
13348 1 1 0 635.8875372791703 675.8387279686976 655.9402114660318 1 0 0
266 1 1 0 670.493955164378 651.8559284439103 636.1984971174217 0 0 0
267 1 1 0 636.593720442513 675.340042140666 653.1539968440043 0 0 0
268 1 1 0 665.7316061603896 654.1814344696671 638.3365297007133 0 0 0
269 1 1 0 664.9857150876078 655.4219274168073 638.8530651036372 0 0 0
270 1 1 0 664.4064631063501 653.6246689984184 637.5909274825377 0 0 0
271 1 1 0 663.3591154628787 653.1782680552011 638.5554184412892 0 0 0
272 1 1 0 663.7336956629465 650.9811138077373 637.5563385585441 0 0 0
273 1 1 0 663.1634894732258 651.8118922078863 638.6597852768285 0 0 0
274 1 1 0 664.8724853442736 650.292040910026 638.0302900789111 0 0 0
275 1 1 0 665.3957097608983 650.83751151171 639.2137084367488 0 0 0
276 1 1 0 667.192413660569 651.6873328102189 637.7667629444846 0 0 0
277 1 1 0 666.3733465777241 651.7344172891328 638.8896519672787 0 0 0
278 1 1 0 667.76952206192 653.1178311040454 637.1665165820169 0 0 0
279 1 1 0 668.6636032269563 652.7713051776989 638.5767098042434 0 0 0
280 1 1 0 670.7785863070327 651.7122252321818 637.5494997074762 0 0 0
281 1 1 0 669.751785479362 651.8501937987556 638.5717140659654 0 0 0
282 1 1 0 671.6969748794905 650.5984586880645 637.7188470857086 0 0 0
283 1 1 0 664.1944487215385 654.9185001329206 639.8831500665009 0 0 0
284 1 1 0 664.3082248809401 655.7593865078658 640.980273934401 0 0 0
285 1 1 0 663.2094073375713 653.9794742340523 639.6494881977148 0 0 0
286 1 1 0 662.4134663518909 653.5903276085814 640.7195303223989 0 0 0
287 1 1 0 663.2320043980815 651.4340914224985 640.0565698241744 0 0 0
288 1 1 0 662.4844622880405 652.2135108362243 640.9622300749674 0 0 0
289 1 1 0 664.6968167782768 651.3973308488264 640.4337216455515 0 0 0
290 1 1 0 664.8746151382436 650.9728112480003 642.0062107374099 0 0 0
291 1 1 0 666.2170548595532 653.1900196795333 639.4080597385953 0 0 0
292 1 1 0 665.4384576365582 652.8094698561489 640.7354711027307 0 0 0
293 1 1 0 667.8066144416766 652.8608718494205 639.6860218222749 0 0 0
294 1 1 0 668.0547098922278 652.0253930385614 640.9272168901219 0 0 0
295 1 1 0 669.6620527619532 650.7316878465253 639.559962907274 0 0 0
296 1 1 0 668.7727971106021 650.7931670379289 640.6477192754526 0 0 0
297 1 1 0 663.7997745787482 655.2207946268037 642.1649249578114 0 0 0
298 1 1 0 664.6996378321124 654.759324885706 643.1154958011102 0 0 0
299 1 1 0 662.3580669716177 654.6378407474582 641.8517232825517 0 0 0
300 1 1 0 661.8376317511619 653.9774354724342 643.1350124590296 0 0 0
301 1 1 0 662.533089697571 651.8358277616726 642.3318772122093 0 0 0
302 1 1 0 661.6542088362091 652.5774351146548 643.076281591526 0 0 0
303 1 1 0 663.8626714240896 651.5743360672533 642.8941985293968 0 0 0
304 1 1 0 664.2975700952065 652.5910205347978 643.8642918186354 0 0 0
305 1 1 0 665.9578484538105 652.934275563748 642.0650720823272 0 0 0
306 1 1 0 665.2306835894004 653.468376478512 643.2080851519137 0 0 0
307 1 1 0 667.0573381140154 651.9977253981626 641.9918079303015 0 0 0
308 1 1 0 666.3098240630558 650.7688318904836 642.2541286171323 0 0 0
309 1 1 0 668.2100937083326 649.5560069883453 641.062942961747 0 0 0
310 1 1 0 667.2150642261515 649.6700173298634 642.0898926250134 0 0 0
311 1 1 0 652.4535825856138 667.5894604568867 678.46660257212 0 0 0
3982 1 1 0 664.4561489426034 638.873161002958 684.5376478269435 0 0 0
313 1 1 0 672.784131503842 650.398333321831 636.8266520551509 0 0 0
4728 1 1 0 638.1411423926867 642.1501005012104 683.4498774482017 0 0 0
315 1 1 0 658.3389338396214 636.937895548841 666.5092534147341 0 0 0
316 1 1 0 677.1160264456583 649.8463050182211 636.1220516614627 0 0 0
317 1 1 0 675.5462334542287 650.046140166967 636.0652031421196 0 0 0
318 1 1 0 674.7748227390646 649.0039035554997 636.7359917461584 0 0 0
319 1 1 0 673.4074926304323 649.1561579180141 636.9278656503151 0 0 0
320 1 1 0 671.1719546834022 649.3840882104569 638.201037009545 0 0 0
321 1 1 0 672.5701257921032 647.9890919036803 636.8734817425532 0 0 0
322 1 1 0 671.3169112851142 648.1458757798697 637.3885398595478 0 0 0
323 1 1 0 670.0861548608419 649.4313173720344 639.0236672901875 0 0 0
324 1 1 0 669.1922092878833 648.3082477280261 639.1035467421848 0 0 0
325 1 1 0 670.1646497417184 647.4838211793981 636.9901740547807 0 0 0
326 1 1 0 669.0666706388312 647.6347740417423 637.8000119972689 0 0 0
327 1 1 0 668.038275595762 648.5732378161914 640.0398818949183 0 0 0
328 1 1 0 666.8527861026257 648.6689773915303 639.2962127477002 0 0 0
329 1 1 0 667.7117433625499 647.8030516348833 637.2299220536098 0 0 0
330 1 1 0 667.088080661437 648.893773857491 637.9019176235352 0 0 0
331 1 1 0 639.206579295147 638.6503608839207 652.5083680534301 0 0 0
332 1 1 0 636.6397892620029 675.2829114749068 665.5455616156052 0 0 0
2298 1 1 0 654.1383521012395 637.0464708341235 673.8703016830652 0 0 0
334 1 1 0 665.8431385623704 678.3155972215611 643.7219452999959 0 0 0
335 1 1 0 636.1069912147311 675.13219816279 641.4442007766609 0 0 0
336 1 1 0 635.6818232728713 642.6317026524282 636.3765998107873 0 0 0
337 1 1 0 678.230571195227 649.5989975551503 636.9256083043284 0 0 0
338 1 1 0 676.5175142759839 647.3325058254635 636.3443886565066 0 0 0
339 1 1 0 675.1226522242375 647.5616833735402 636.4948695119479 0 0 0
340 1 1 0 674.2103358687926 646.8967383630688 635.5611452816993 0 0 0
341 1 1 0 672.8821735180608 647.0429049668857 635.8599382925838 0 0 0
24 1 1 0 683.7013642451836 665.6628575962227 657.0181287353973 0 0 0
343 1 1 0 670.087773941779 647.0233525452193 635.5999098869779 0 0 0
1082 1 1 0 683.7205876236993 663.8523242585513 654.0313966922598 0 0 0
2309 1 1 0 636.7400221104311 635.2490370920195 641.0389792621024 0 0 0
346 1 1 0 636.2996050488189 675.5003342002809 658.1957162034477 0 0 0
347 1 1 0 660.8686654458722 639.5105815117159 678.5753781107541 0 0 0
348 1 1 0 640.7712549517914 672.7818778716892 639.6339570929266 0 0 0
349 1 1 0 640.8187661427726 672.9539982082273 637.1216938921493 0 0 0
350 1 1 0 639.5478804949056 672.2320221647524 637.2121274137909 0 0 0
351 1 1 0 639.3672008695575 672.5092150689011 639.6187688156164 0 0 0
352 1 1 0 638.6508158383334 672.1226468751794 640.7763131398832 0 0 0
353 1 1 0 638.752242481198 672.5842227629992 638.3352483450732 0 0 0
354 1 1 0 637.4416931462122 672.7730444091948 637.8678932482939 0 0 0
355 1 1 0 639.7707627826877 636.3462514099162 653.6341289357626 0 0 0
356 1 1 0 637.4461943522673 674.8815968297783 654.1661323451798 0 0 0
2151 1 1 0 635.3221315335784 641.4876161081281 682.2211444984905 0 0 0
358 1 1 0 639.024674632266 671.6066334749235 636.0517282001358 0 0 0
359 1 1 0 636.8404937750945 671.0463343054938 661.3201399052863 0 0 0
360 1 1 0 637.0923085949223 636.354771256838 648.1529021750933 0 0 0
361 1 1 0 653.6375052299276 682.0947169763667 676.8083755576088 0 0 0
362 1 1 0 675.1679889561788 679.6747909850299 642.3615832563027 0 0 0
363 1 1 0 638.3156972567926 659.7567095701195 653.3086931172224 0 0 0
364 1 1 0 636.0980087942224 642.6737793012337 662.4978170312723 0 0 0
365 1 1 0 637.6453536333581 671.3527015289324 635.9954286705437 0 0 0
366 1 1 0 636.9220052868185 671.6132295079427 637.1658709587459 0 0 0
11139 1 1 0 634.8678058776956 654.7114019568176 662.2107371855432 1 0 0
368 1 1 0 671.7691873798457 663.105138901583 680.519136305291 0 0 0
369 1 1 0 638.5920473253448 635.9807135592279 649.923618707041 0 0 0
370 1 1 0 637.5251825296717 638.7369879481174 648.6804866783528 0 0 0
371 1 1 0 639.7830028103932 648.3095438803107 644.0654341383562 0 0 0
372 1 1 0 638.8441629079115 639.6732449851962 655.9182724971955 0 0 0
1201 1 1 0 665.4211194887093 683.2730085206915 654.4550093073199 0 0 0
374 1 1 0 642.432126957461 674.1968595442115 636.7429526854195 0 0 0
375 1 1 0 642.6499259210885 673.8575428517207 638.0998361491315 0 0 0
376 1 1 0 643.1687492818439 673.1525751400554 635.8394782101353 0 0 0
377 1 1 0 641.7585645106799 672.4534611540219 635.922519280325 0 0 0
378 1 1 0 641.520237576764 673.1683031621749 638.5026577481141 0 0 0
1254 1 1 0 660.3830406466642 683.8688445980243 653.3845638212263 0 0 0
380 1 1 0 638.8858411154714 640.9841082328857 652.5331806532963 0 0 0
381 1 1 0 636.901771684593 646.4319662225499 663.2226109611842 0 0 0
382 1 1 0 671.2597418773342 676.1144836503175 640.7211695128873 0 0 0
2310 1 1 0 682.4138878796678 635.1766966971279 662.4839691142795 0 0 0
384 1 1 0 664.7266604845223 637.5450067659108 661.8086945337475 0 0 0
385 1 1 0 639.1854662032565 640.5979545427252 649.8679982108537 0 0 0
1263 1 1 0 660.93993439892 683.1898934110292 655.1706085596337 0 0 0
387 1 1 0 639.5791573503068 647.4678134732596 642.9167191964606 0 0 0
388 1 1 0 662.5974587821609 664.0457587584432 640.5577237363016 0 0 0
3970 1 1 0 663.0647026154812 638.4698476694612 684.3971879538815 0 0 0
390 1 1 0 637.7175918389511 640.7253984561445 657.7602490681362 0 0 0
391 1 1 0 643.1002221099229 650.8318325601915 643.2824704404885 0 0 0
392 1 1 0 664.2208083337753 635.605860465578 656.7634506913503 0 0 0
393 1 1 0 668.5828782713245 676.6276492918531 646.9346478006603 0 0 0
394 1 1 0 640.4537407984058 649.1474552483397 641.4656444708448 0 0 0
395 1 1 0 662.9468965112246 637.3251050345344 675.7449231216547 0 0 0
2548 1 1 0 639.9718623698409 649.2930216577408 637.7629729949333 0 0 0
397 1 1 0 638.42896096173 635.9679990868456 656.0066638016713 0 0 0
398 1 1 0 648.3927908987696 651.5501232948576 637.2616582080095 0 0 0
399 1 1 0 680.6737693978499 665.2801070343669 683.1791026699299 0 0 0
379 1 1 0 655.1028164842797 649.385735195929 635.0460617312483 0 0 0
401 1 1 0 642.4581570708677 650.6710195032684 644.5483096015665 0 0 0
402 1 1 0 664.6663853207324 676.3015646005643 644.5512588376819 0 0 0
403 1 1 0 665.3870154065854 636.3985402783806 662.2719183519913 0 0 0
404 1 1 0 641.0292031674002 674.3102260560793 636.2277092758374 0 0 0
405 1 1 0 639.1913987963679 643.3014627073932 653.853199080144 0 0 0
406 1 1 0 640.2048570761784 654.9199683960118 649.1477874652243 0 0 0
407 1 1 0 672.5608801005028 658.959712943629 682.2279819436682 0 0 0
408 1 1 0 653.090369800327 681.0355977179127 673.365932439255 0 0 0
409 1 1 0 660.168354454378 637.1180068474106 664.23004575335 0 0 0
410 1 1 0 663.3198275521166 674.4120340198655 644.0889936319575 0 0 0
411 1 1 0 635.8429673012143 643.830301992104 666.2498941912834 0 0 0
412 1 1 0 658.1725539824442 671.7688279461175 637.7243311835542 0 0 0
413 1 1 0 638.4712068705744 640.8222347095707 656.528956656878 0 0 0
414 1 1 0 659.4946617751947 671.3003779408518 637.9472111827142 0 0 0
415 1 1 0 636.946047429581 672.3246135485476 661.833549951976 0 0 0
416 1 1 0 663.2715351795032 637.5922105380613 659.6636748896171 0 0 0
2135 1 1 0 658.5023515984954 683.9558407442618 668.690734592071 0 0 0
418 1 1 0 675.9965466475679 656.4938864959422 683.6832638134961 0 0 0
419 1 1 0 641.6597756401508 657.1944266351464 652.8569601609596 0 0 0
420 1 1 0 679.6657455466961 660.22380264372 683.4406435070599 0 0 0
421 1 1 0 653.0582376949455 663.6134552067366 679.3983008086424 0 0 0
211 1 1 0 656.2457383284226 684.3620839390152 683.0338320495651 0 0 0
423 1 1 0 653.2792913389707 665.4552254547569 677.793232062953 0 0 0
424 1 1 0 653.0726365273682 666.83735718216 677.4538880456375 0 0 0
425 1 1 0 657.1843591567255 671.2106265240664 639.7327002469378 0 0 0
426 1 1 0 656.1220105846456 670.095278060421 640.1843786784038 0 0 0
427 1 1 0 657.013046109602 670.6612126794633 638.1672894549798 0 0 0