LAMMPS data file via write_data, version 2 Aug 2023, timestep = 50000, units = metal

28292 atoms
1 atom types

638.1112919202582 730.3227080797636 xlo xhi
638.4712743407939 730.6717256592261 ylo yhi
638.4599495817818 730.6830504182383 zlo zhi

Masses

1 12.0107

Atoms # full

1 1 1 0 638.5318200554871 654.9032627266253 660.8127001865324 0 0 0
2 1 1 0 672.5440564954471 670.4570886813789 648.2378047616784 0 0 0
3 1 1 0 658.9016896516657 675.9359037859247 642.4385364801531 0 0 0
1647 1 1 0 638.4138012943104 649.4656820002822 646.8957431802427 0 0 0
224 1 1 0 649.0892654139734 642.8616186177077 639.1255149630449 0 0 0
6 1 1 0 680.0974379528061 670.0816708839812 642.0975446768352 0 0 0
4 1 1 0 671.745194422982 638.6820803708603 655.726607664952 0 0 0
8 1 1 0 681.618481230046 682.36291338648 639.8224796316218 0 0 0
9 1 1 0 679.360582900281 681.9960314185848 655.5417189078572 0 0 0
10 1 1 0 673.0736022275453 674.5699111878403 642.6023860387835 0 0 0
14932 1 1 0 683.883903544684 680.780696657913 655.7559075959732 0 0 0
12 1 1 0 671.4020954404496 675.027113056323 640.9935195038698 0 0 0
13 1 1 0 671.1640327358123 670.1673051720499 648.0392508864577 0 0 0
17486 1 1 0 683.7389260134879 655.0875455096123 671.9879975303284 0 0 0
15 1 1 0 671.7196448680982 674.5327396194515 642.2397926444723 0 0 0
782 1 1 0 683.6024554948284 643.4891711634689 649.669267565149 0 0 0
17 1 1 0 639.4036248935473 645.913399048502 646.1289493840092 0 0 0
18 1 1 0 655.1233651167042 677.1244492902725 644.9817177681205 0 0 0
1884 1 1 0 661.9451909022044 662.7293499383653 639.0355136377264 0 0 0
20 1 1 0 639.705440719641 639.8561663627114 667.112304029198 0 0 0
21 1 1 0 674.6958274083848 678.6619027098492 641.6877081255052 0 0 0
10153 1 1 0 671.8402691634159 638.8605753257161 668.3803271460152 0 1 0
23 1 1 0 641.5248918007085 646.42544769189 649.5231850939209 0 0 0
24 1 1 0 674.3407091500336 660.1135535924548 646.4766630837782 0 0 0
25 1 1 0 675.2691248980414 657.761687756966 643.406024096246 0 0 0
26 1 1 0 645.5484789783826 676.2279583182092 649.2095409587005 0 0 0
27 1 1 0 651.035640823748 676.7825200698353 645.3376847116145 0 0 0
151 1 1 0 641.1598591511785 638.6207248828873 641.4449444978219 0 0 0
29 1 1 0 654.2634028878473 678.3517333916616 645.3738258288612 0 0 0
30 1 1 0 670.7192834167257 642.3622454637978 681.3654905715262 0 0 0
31 1 1 0 679.4076185912876 682.2932673496591 656.924995694307 0 0 0
32 1 1 0 642.5023339247032 639.8111209961744 659.4901993091137 0 0 0
33 1 1 0 660.5737207655955 639.4256107176752 654.9927225106629 0 0 0
345 1 1 0 683.960332913872 648.7326569652898 641.8316238731846 0 0 0
35 1 1 0 672.0174776144693 682.7044731583085 677.3159663443341 0 0 0
7913 1 1 0 657.4186734957896 639.0289658082697 682.5195815434238 0 1 0
37 1 1 0 665.1432529233037 683.044718344949 678.1634195324768 0 0 0
38 1 1 0 644.1164782180318 679.2494291684416 650.8439471298776 0 0 0
39 1 1 0 682.9701494373818 667.3607963477994 641.1043664062223 0 0 0
40 1 1 0 644.2670682555399 682.2417382557584 652.9434121554884 0 0 0
41 1 1 0 659.7919432868058 642.7268643103536 654.0815927895659 0 0 0
42 1 1 0 643.549312245339 642.094173347027 648.8181068048017 0 0 0
43 1 1 0 640.27631832226 647.4521546024175 647.7293510944736 0 0 0
44 1 1 0 643.8325805306408 681.361331878 651.951583074825 0 0 0
45 1 1 0 639.7409104239944 683.615431031054 683.043168222795 0 0 0
46 1 1 0 659.8366556652979 676.2699417025993 641.3321300548915 0 0 0
47 1 1 0 670.7073503892882 641.105896241808 680.7988702276725 0 0 0
1249 1 1 0 679.4498520039465 684.4875701846373 657.9008193936979 0 0 0
2610 1 1 0 660.494426502172 682.4264879679749 683.9235247149405 0 0 0
50 1 1 0 669.1756816401305 680.8445591834272 673.8070205372267 0 0 0
51 1 1 0 670.04344854272 640.2863790498918 661.8379170777505 0 0 0
52 1 1 0 665.1837264180928 681.8675178170606 677.4061830728464 0 0 0
53 1 1 0 669.9131432256514 642.035506428029 677.2584535617133 0 0 0
54 1 1 0 664.6338325643453 642.1594015381255 684.0077585388528 0 0 0
55 1 1 0 681.6628838554474 653.3359508577503 639.4093502065302 0 0 0
56 1 1 0 682.4846184464328 652.2742526260229 638.9804379380728 0 0 0
238 1 1 0 638.5504377911093 668.7952145317652 677.0816710636823 0 0 0
58 1 1 0 640.9711181587826 645.0544812619356 656.194539841555 0 0 0
59 1 1 0 679.5474081085749 654.4103600948087 639.2368469374036 0 0 0
60 1 1 0 669.4405755668893 668.5167908189369 647.5361506840462 0 0 0
61 1 1 0 670.0367999739328 641.2587155187678 683.422542661097 0 0 0
2684 1 1 0 663.4993242128826 684.1467289962076 681.1735091918773 0 0 0
63 1 1 0 662.0019687909445 661.0399926119292 641.7620969154315 0 0 0
2296 1 1 0 650.0002651379237 684.512532461438 667.4345964976654 0 0 0
65 1 1 0 662.0588140740518 659.9026271650831 683.8705766651611 0 0 0
66 1 1 0 673.5091219026021 669.4021220980696 648.1046846206071 0 0 0
67 1 1 0 642.8461769013745 681.739205068797 651.0401413661912 0 0 0
1198 1 1 0 667.8117598807713 669.8505189442795 684.3340652243498 0 0 0
69 1 1 0 642.6286413172438 645.1892823982752 640.7122040589803 0 0 0
70 1 1 0 639.5518858214363 647.2269478293755 646.540044623772 0 0 0
71 1 1 0 672.268406057641 675.9741664699895 640.3577918754312 0 0 0
72 1 1 0 675.8889106585758 671.0758429857434 644.4557787869024 0 0 0
73 1 1 0 673.4740679171896 676.4863820260703 640.9166392175526 0 0 0
74 1 1 0 647.3603472222835 673.9712096790745 640.750324152665 0 0 0
75 1 1 0 642.7773762311549 646.663924900069 656.62595053427 0 0 0
76 1 1 0 666.9656931896167 642.0761537526613 659.2150486636482 0 0 0
77 1 1 0 643.1060158538019 642.0939469470367 647.4719505366658 0 0 0
78 1 1 0 641.0682086571786 646.3977149224153 648.1835486638722 0 0 0
79 1 1 0 649.2043002844764 639.7369734666779 669.7868239154653 0 0 0
80 1 1 0 647.862531762688 639.9620616219535 669.3704219631932 0 0 0
3282 1 1 0 645.4471486654363 638.6867899025542 653.7476317656136 0 0 0
82 1 1 0 673.3342010452557 653.1210141342324 639.4767088735673 0 0 0
83 1 1 0 639.4614635799712 639.6014104611412 645.0648238591219 0 0 0
84 1 1 0 683.1393166832165 661.3591060832431 639.2083650410965 0 0 0
85 1 1 0 673.7420549377721 679.8609463322254 639.2859545330991 0 0 0
855 1 1 0 676.3391827558281 639.0127003879342 652.5473378252636 0 0 0
17329 1 1 0 683.8772205952172 671.3351840415073 640.9331230895014 0 0 0
17415 1 1 0 683.0732735928146 643.529574019449 680.532621325637 0 0 0
89 1 1 0 642.9156090964245 642.9407557574954 639.7668419971968 0 0 0
90 1 1 0 640.4101267515617 682.8256573253526 684.2247512279448 0 0 0
91 1 1 0 650.8887439798427 639.5235709687981 646.4384110045654 0 0 0
92 1 1 0 665.5171743679585 640.1711699274348 678.4401276093502 0 0 0
93 1 1 0 662.2216578226703 640.281795892728 680.8153359333465 0 0 0
162 1 1 0 661.5273470938727 677.0492890830499 639.3544491781201 0 0 0
95 1 1 0 679.0435589118545 651.462477972166 639.2030600785679 0 0 0
96 1 1 0 643.651446295315 644.8741633497549 654.82573781109 0 0 0
97 1 1 0 643.7296495190734 642.0711689132381 667.4546215238763 0 0 0
98 1 1 0 639.1275217412376 651.3905933083888 641.0077668254424 0 0 0
99 1 1 0 639.663589849859 651.4824563056823 642.3057465563578 0 0 0
100 1 1 0 639.8141512761883 654.0332004114161 642.533279599746 0 0 0
101 1 1 0 639.7945230375934 652.6664372105105 643.0868738374269 0 0 0
102 1 1 0 640.1464588881145 655.1322147592342 643.5042598672237 0 0 0
103 1 1 0 639.6137000232188 654.8135305009124 644.8419514500894 0 0 0
4666 1 1 0 668.7976962741267 653.8136061526588 638.6062687438744 0 0 1
105 1 1 0 645.9041156448268 642.5241142980075 670.8345834235689 0 0 0
106 1 1 0 646.1537888099041 643.8450614148785 659.1096228373004 0 0 0
107 1 1 0 643.3190083452448 649.7258611862087 683.2027619791123 0 0 0
108 1 1 0 640.782870901828 675.6442638600431 683.6433941405796 0 0 0
16978 1 1 0 638.3353987150164 672.292103127451 678.1956082205322 1 0 0
110 1 1 0 682.5635312201644 659.6928485007568 653.2262985356268 0 0 0
111 1 1 0 668.6211632727801 644.2382311104184 681.7339251894115 0 0 0
112 1 1 0 682.3448504192986 669.5722342380209 641.4578635077257 0 0 0
113 1 1 0 643.9937680511763 640.637612148784 670.4502596918188 0 0 0
114 1 1 0 682.698390561669 641.6181477668665 682.4204760390268 0 0 0
115 1 1 0 640.0142912914698 650.259352059697 642.9184770107597 0 0 0
116 1 1 0 639.5802086626114 649.9853159694665 644.260495016038 0 0 0
117 1 1 0 639.4362741421919 652.4975680689414 644.4093292183676 0 0 0
118 1 1 0 638.7990562723537 651.1289223083048 644.8175308886941 0 0 0
372 1 1 0 650.9017913974591 638.7684816790521 641.1379885918392 0 0 0
120 1 1 0 640.2467116576928 644.9501254321304 646.4734008349286 0 0 0
121 1 1 0 667.8937124094308 639.4419775634186 639.3069656568878 0 0 0
122 1 1 0 647.2483830199603 642.9168530615007 659.1401353708225 0 0 0
123 1 1 0 644.4301153752048 644.4245895166706 670.0517856772145 0 0 0
124 1 1 0 644.608486247423 643.0018253141413 670.4810671908467 0 0 0
125 1 1 0 644.8615372624604 671.6266699178133 640.3842347643853 0 0 0
126 1 1 0 644.8827057060512 644.5971455023393 668.7380829616105 0 0 0
1144 1 1 0 663.5141198153541 639.01197745797 679.2600870301219 0 0 0
128 1 1 0 678.8665471014906 669.6414767335526 642.6596784513921 0 0 0
129 1 1 0 639.598849654598 647.4818316073508 643.7784302000479 0 0 0
130 1 1 0 638.9005419457759 646.1048475614573 643.8021273401718 0 0 0
131 1 1 0 638.8907966216217 648.6236850488166 644.4529786166663 0 0 0
132 1 1 0 656.7067614941651 676.9057053619244 643.1072835266771 0 0 0
133 1 1 0 651.4055396096464 665.7334040480263 641.3739338018761 0 0 0
134 1 1 0 673.8352741417447 675.9459589528595 642.308958104646 0 0 0
135 1 1 0 673.2739378974436 677.2877576917095 642.7421330021942 0 0 0
136 1 1 0 657.9479209323547 679.2910639784175 643.6729421882984 0 0 0
137 1 1 0 649.8788417497694 641.938476727974 639.9089555671072 0 0 0
138 1 1 0 639.8516847981768 668.4713883503355 677.428066381252 0 0 0
139 1 1 0 647.21671002212 641.2061808922222 668.9824709846727 0 0 0
140 1 1 0 670.1213298818084 674.7928934477465 640.4897439490958 0 0 0
141 1 1 0 643.6904283408062 642.0005274500046 670.0416241396155 0 0 0
215 1 1 0 673.3717806340505 638.9858847685914 676.6413987499927 0 0 0
143 1 1 0 653.4652696515669 640.2290098361958 676.5227168108631 0 0 0
7837 1 1 0 648.0978585072522 638.7463889548351 682.1421008327826 0 1 0
145 1 1 0 660.1173122057602 676.9353092004336 682.9924040769972 0 0 0
146 1 1 0 654.9011910925137 680.5975431331192 649.241565946303 0 0 0
147 1 1 0 652.3297763454547 676.9983763978371 645.0617237765192 0 0 0
148 1 1 0 651.0420308723149 678.4034823149555 647.0871214551429 0 0 0
149 1 1 0 658.5186354193074 678.3885190865867 642.741788727979 0 0 0
150 1 1 0 661.5856343019814 640.1665810875407 682.0488744598042 0 0 0
8898 1 1 0 669.287971680426 638.5051030330535 666.9229198698406 0 1 0
13848 1 1 0 683.7841982119414 653.780871581145 671.3086736801591 0 0 0
11 1 1 0 638.3333195269106 653.0157655058601 649.3076731579049 0 0 0
154 1 1 0 683.792407451239 647.5867979888726 642.6532012515037 0 0 0
155 1 1 0 682.2381494815689 654.5006681009352 639.9280150664838 0 0 0
156 1 1 0 641.653910357078 639.0565126701426 645.9119357419489 0 0 0
157 1 1 0 643.7427159862932 683.5491846169219 652.910660574568 0 0 0
158 1 1 0 674.4831095572523 658.3939124223541 644.4233912380432 0 0 0
159 1 1 0 643.0374362985184 669.6588225883474 683.3099323051435 0 0 0
160 1 1 0 652.2837080434787 678.8393536447696 646.6513859519083 0 0 0
161 1 1 0 671.1167181727249 672.1271901599615 646.850379784713 0 0 0
3649 1 1 0 653.9564046343064 656.7333434142199 684.0073019502553 0 0 0
3652 1 1 0 671.6182296680839 644.9490231650944 638.8193851794834 0 0 0
164 1 1 0 672.0342759240307 639.5354237588319 676.4586344690389 0 0 0
165 1 1 0 682.2053612941673 639.0312139332922 650.5020264416825 0 0 0
166 1 1 0 656.4043573218232 681.3367382754418 647.1103233754669 0 0 0
167 1 1 0 642.1580352367191 643.0471038793222 647.1247368214945 0 0 0
168 1 1 0 648.1072999092725 640.0487153097938 681.9393598782881 0 0 0
169 1 1 0 680.0124666302307 639.1180994926517 678.4758151389328 0 0 0
170 1 1 0 643.0175369807224 641.2020634012479 661.3677099820068 0 0 0
171 1 1 0 672.2095160303776 645.3073760553511 679.3804154997632 0 0 0
1625 1 1 0 638.7838264725469 682.8964182599033 678.0997389617153 0 0 0
173 1 1 0 643.5540405049417 668.2913509504376 677.3312778918755 0 0 0
174 1 1 0 664.1227463170884 679.7905096073193 676.7123617962792 0 0 0
175 1 1 0 640.2640014990865 675.9279840267172 681.2369015101477 0 0 0
176 1 1 0 683.6275716898 654.5320979229367 640.1949794052668 0 0 0
177 1 1 0 640.7771637987785 662.1393151462776 639.4168744702434 0 0 0
178 1 1 0 663.3772694257251 643.8225646137784 657.7629836330035 0 0 0
179 1 1 0 645.3172539364363 640.3040380612822 670.1363113029884 0 0 0
180 1 1 0 641.1146113196687 668.7507345825625 677.8821722670458 0 0 0
181 1 1 0 664.1302384426218 643.4403850322436 681.4252990683639 0 0 0
182 1 1 0 665.8398271297665 648.0517377844242 657.0555789074069 0 0 0
183 1 1 0 668.2237568666546 657.6271604277306 640.2577623618414 0 0 0
184 1 1 0 676.951530355946 670.1460315274228 644.0796437994818 0 0 0
185 1 1 0 671.7287935066025 643.9932063294078 679.602726679552 0 0 0
186 1 1 0 664.5301323960688 648.4454958673629 656.5280161583574 0 0 0
187 1 1 0 642.285308061275 668.7025847162224 677.0392414160859 0 0 0
188 1 1 0 644.0030312174304 642.1051512829848 639.9493112726947 0 0 0
189 1 1 0 665.0567622099186 643.9922303108083 682.3495945556305 0 0 0
190 1 1 0 671.8293161586344 681.7803032616049 676.2896547235528 0 0 0
191 1 1 0 667.463291529903 678.6900675422307 671.3205574410347 0 0 0
192 1 1 0 670.3139319282354 642.3454445062004 658.1158552269123 0 0 0
193 1 1 0 661.6481638172031 643.3531758037437 656.0067960030175 0 0 0
194 1 1 0 671.583211090353 641.5120062777463 658.4779724378537 0 0 0
195 1 1 0 649.8215594350655 640.480636715023 646.6749563753657 0 0 0
196 1 1 0 667.80010838145 659.2174452145061 643.5961381624081 0 0 0
197 1 1 0 668.4332728006202 642.406287187593 677.58881139686 0 0 0
198 1 1 0 664.5471834443431 642.6440514078046 679.1918728409355 0 0 0
199 1 1 0 667.6026702977066 641.2815245646408 677.8679786728754 0 0 0
200 1 1 0 642.5059724775298 683.097441408662 650.9044732948397 0 0 0
854 1 1 0 642.186080651302 670.1706705386312 684.3425932740325 0 0 0
202 1 1 0 656.2380643371631 668.9631618108527 641.7898268366964 0 0 0
203 1 1 0 667.3160779310969 644.805717705001 681.8733056407472 0 0 0
204 1 1 0 647.1216220872477 639.0751589257201 644.7032686237317 0 0 0
205 1 1 0 665.3288631724674 645.8665589429722 680.7909730585998 0 0 0
206 1 1 0 665.3742970480724 643.2965272492208 683.5254903803539 0 0 0
207 1 1 0 665.9088431265865 645.0154685466796 681.8347400634568 0 0 0
208 1 1 0 669.7458789062898 683.5296836691223 677.0890063341504 0 0 0
209 1 1 0 668.2005844918896 646.6455495690523 657.9216212525827 0 0 0
210 1 1 0 682.331403836926 645.831678008889 643.4596486905675 0 0 0
211 1 1 0 667.7189058121402 639.9485918693699 662.3840780264964 0 0 0
212 1 1 0 683.1125012672709 645.739260127169 644.6374932686042 0 0 0
213 1 1 0 674.258763439166 671.9213196417918 647.5086876513548 0 0 0
214 1 1 0 671.8801465509008 676.5281010542981 639.12868618554 0 0 0
275 1 1 0 641.3267963672321 679.4807611937696 684.3573455651391 0 0 0
216 1 1 0 677.9698604125268 670.6185406987655 643.2268857915881 0 0 0
217 1 1 0 668.8022625028317 669.4359146853018 646.7071291565605 0 0 0
218 1 1 0 668.1246289820963 640.0085197965695 677.5771489298756 0 0 0
219 1 1 0 654.8885553269579 679.5460497991488 645.8154279408557 0 0 0
220 1 1 0 667.0055360024746 644.6347247185372 657.9460077317041 0 0 0
221 1 1 0 642.9546941940221 642.8720812629987 650.9936604671952 0 0 0
222 1 1 0 680.5877513334137 641.8100399472823 648.7261683298204 0 0 0
223 1 1 0 651.0891884459685 640.9621890670941 642.6461104566198 0 0 0
16495 1 1 0 683.9397092732065 644.0922834864689 678.3989549575718 0 0 0
225 1 1 0 648.6923362396348 644.8300329770276 658.3732687875986 0 0 0
2958 1 1 0 683.7667742138221 679.2363286238765 639.7473308356891 0 0 0
227 1 1 0 646.4357148450339 675.0484284591739 640.6899588537661 0 0 0
228 1 1 0 663.5927990352046 657.2615963846639 645.7908228263202 0 0 0
229 1 1 0 648.3228950224432 643.4486099900636 658.3481355856089 0 0 0
3118 1 1 0 662.5500761447146 639.0014778801071 656.8421747642429 0 0 0
231 1 1 0 668.6139533405579 657.9187566185253 641.6254817009748 0 0 0
232 1 1 0 641.0162413567068 642.645532488045 646.4236039704687 0 0 0
233 1 1 0 676.202344963853 664.9549341893677 683.8630466261053 0 0 0
234 1 1 0 641.3453966311347 670.0091475526885 681.606810968114 0 0 0
235 1 1 0 678.9363959676067 682.9908303592853 654.6005799172458 0 0 0
236 1 1 0 641.4848099171566 644.0334155172309 666.7132188811091 0 0 0
237 1 1 0 672.9731597419321 678.6420531318822 639.8079212081352 0 0 0
3801 1 1 0 656.4216607992003 656.8248551119126 684.3894985735193 0 0 0
3419 1 1 0 638.5289697566081 648.0152367149935 675.8623751116792 0 0 0
240 1 1 0 645.1083314883557 642.914931922013 653.4643746323893 0 0 0
241 1 1 0 646.1891703644482 645.3106217279786 659.1858835238127 0 0 0
242 1 1 0 664.2886577081488 641.6347489066682 651.718557643279 0 0 0
371 1 1 0 666.3148260006305 683.8376801760614 678.2455130334804 0 0 0
244 1 1 0 665.2258490097752 640.5419822721934 672.2444108881845 0 0 0
245 1 1 0 642.5403529971411 643.8262883363541 651.8700200327313 0 0 0
246 1 1 0 677.7797301759297 643.9655492078438 641.1105151108511 0 0 0
247 1 1 0 663.4771801709192 642.4668660277099 658.148663157761 0 0 0
248 1 1 0 639.0054134974224 664.7408210884336 640.3172343684259 0 0 0
1189 1 1 0 638.4954443208126 645.3622352487017 661.531608419246 0 0 0
250 1 1 0 679.591341333461 682.3945738866839 640.1742420404736 0 0 0
251 1 1 0 657.8142912323207 680.9287689059065 678.0500712366071 0 0 0
252 1 1 0 676.680135499677 650.9396567327054 640.6315947162257 0 0 0
253 1 1 0 679.0697932120574 650.7885893476201 640.3763415251287 0 0 0
254 1 1 0 677.8159865156871 650.0693245826601 640.7046161647634 0 0 0
255 1 1 0 680.320893155681 650.29689629863 640.6305699685881 0 0 0
256 1 1 0 680.4476011435945 648.8740327375746 640.6127649915735 0 0 0
257 1 1 0 674.8777664788031 652.3844095528656 640.8680987060625 0 0 0
258 1 1 0 674.455922488527 653.8591664155393 641.0711341343962 0 0 0
259 1 1 0 675.3523851990078 651.0309028247005 641.0824609890491 0 0 0
260 1 1 0 674.6058807224879 649.9438541275034 640.4042951208861 0 0 0
261 1 1 0 677.6770703285133 648.8953099028282 639.8316671306782 0 0 0
262 1 1 0 675.1929887058028 648.7550291281563 639.7372101082732 0 0 0
263 1 1 0 679.900297652903 648.1307703209109 639.5250868233916 0 0 0
264 1 1 0 680.5494477899924 646.8859838319702 639.5057200030478 0 0 0
265 1 1 0 643.1583558513632 643.1390230853973 649.659754683996 0 0 0
16514 1 1 0 683.2824391783819 681.7094065395789 657.9241687702136 0 0 0
267 1 1 0 643.9838575419094 639.8488046720364 647.1623800580714 0 0 0
268 1 1 0 682.7296322084611 650.3678984394975 640.657967685443 0 0 0
269 1 1 0 661.2175140376014 640.9003159786643 651.8553404295242 0 0 0
270 1 1 0 683.5268404796044 663.5258318780722 644.0963121035119 0 0 0
271 1 1 0 672.9589548041213 671.8317223334187 648.1002222756035 0 0 0
272 1 1 0 682.7731622924123 649.1350041771834 641.2208151244698 0 0 0
273 1 1 0 681.5955716596203 648.4101233308558 641.2575862084084 0 0 0
19 1 1 0 656.2334604510216 684.2548828033365 674.6854296977591 0 0 0
2035 1 1 0 672.9170448547911 638.6609804556228 647.2854669202464 0 0 0
276 1 1 0 647.5024924349088 672.9321666149995 639.7970300189465 0 0 0
1183 1 1 0 667.0567395320156 638.9535210929087 665.4904639490163 0 0 0
278 1 1 0 681.6502562248796 647.0391381189904 641.5474345736469 0 0 0
279 1 1 0 680.6294164133733 646.345062832182 640.8361873034268 0 0 0
280 1 1 0 682.629337116987 646.7398888849459 642.5041035834597 0 0 0
281 1 1 0 640.2519373858875 676.1969110012772 644.9343022078139 0 0 0
282 1 1 0 639.8574003208944 645.2233116780988 659.6128719426875 0 0 0
283 1 1 0 638.5988417048462 653.0936927357902 639.4286451597201 0 0 0
284 1 1 0 666.2551343209507 641.3488373824595 678.1985599223159 0 0 0
285 1 1 0 669.00891486484 639.9487322273251 676.5582332955689 0 0 0
286 1 1 0 638.8767697605654 663.3330918387653 640.4638496217186 0 0 0
287 1 1 0 679.3129223228666 658.9787575362877 642.9962909814238 0 0 0
288 1 1 0 681.4796363497447 643.5047931817351 647.3272207988856 0 0 0
289 1 1 0 679.7004796814266 657.556216741692 641.1776852541033 0 0 0
290 1 1 0 681.0276269948264 657.6988690115691 641.3455639531187 0 0 0
2038 1 1 0 664.36551858424 684.1390901340661 680.0508076389859 0 0 0
292 1 1 0 646.1528144121406 667.7959512107348 683.141609961563 0 0 0
293 1 1 0 677.3253461014415 655.2928023747963 639.446874978692 0 0 0
294 1 1 0 659.732502738731 682.4834640671133 680.6099313008133 0 0 0
295 1 1 0 681.430935737 655.516307378405 640.3720577163475 0 0 0
296 1 1 0 649.4325732284789 683.7005780654081 660.0339396639457 0 0 0
297 1 1 0 663.7560635810075 640.2491586541672 668.7683437134797 0 0 0
298 1 1 0 640.3392232573809 677.4392090501393 681.4470984388107 0 0 0
299 1 1 0 639.2484899386678 672.6062130599755 683.0985153837079 0 0 0
300 1 1 0 670.3456950863914 671.0903863298238 647.4001545163356 0 0 0
1054 1 1 0 643.4280013314612 638.7438769459385 642.2090394383604 0 0 0
302 1 1 0 639.3526752539516 641.7418865672738 641.40324791104 0 0 0
303 1 1 0 642.9817820102857 683.9902341313324 651.8565538254754 0 0 0
304 1 1 0 658.9316940752338 665.1398165581134 641.3729276845943 0 0 0
305 1 1 0 643.674629242634 671.5165922517341 639.6224975734168 0 0 0
306 1 1 0 683.0270343762003 680.9957354527675 646.465805853269 0 0 0
307 1 1 0 664.4240024222433 643.7619298838042 679.9949983940913 0 0 0
308 1 1 0 667.8352658361937 643.6559729814472 677.8870961228467 0 0 0
309 1 1 0 663.3544275115942 641.6750333616561 683.1381511290747 0 0 0
310 1 1 0 659.7579821329062 678.6046807841242 642.1352987998373 0 0 0
311 1 1 0 678.6768588332701 663.0879661398208 644.8992533451014 0 0 0
312 1 1 0 677.9892081178357 661.794073851276 644.8339760000035 0 0 0
313 1 1 0 679.7464069988064 662.9737777187144 645.865163901445 0 0 0
314 1 1 0 680.6573172889446 661.8900657212142 645.6545802492084 0 0 0
315 1 1 0 662.2649654586531 640.6108795026133 683.2691202704773 0 0 0
316 1 1 0 678.8918532641771 660.6741386358905 644.6322029131177 0 0 0
317 1 1 0 678.3890741936214 659.694634052613 643.774017031297 0 0 0
318 1 1 0 680.1718839630688 660.6653257656222 645.1272661087496 0 0 0
319 1 1 0 681.0961578951294 659.886396241961 644.4517962435832 0 0 0
320 1 1 0 680.647370996146 659.2275451870912 643.274307631249 0 0 0
321 1 1 0 681.5363434938398 659.0409484066515 642.0670373404839 0 0 0
322 1 1 0 682.2153233963805 662.8608897660455 644.0437319444547 0 0 0
323 1 1 0 682.0009517343923 662.114086490723 645.2604676235047 0 0 0
15283 1 1 0 683.84635625437 653.7106617407412 669.8536936503789 0 0 0
325 1 1 0 642.8621831184544 642.0286818977821 668.7801290067307 0 0 0
326 1 1 0 651.4355339458485 678.9610035532064 649.4244746363456 0 0 0
327 1 1 0 652.6870560093788 679.6013181687958 648.9255676181346 0 0 0
328 1 1 0 655.2691714802638 638.9561033936637 641.0229934317168 0 0 0
329 1 1 0 642.165608460669 645.2980045660797 650.0557675906481 0 0 0
330 1 1 0 656.4578377525845 681.5475488885759 675.3217822948262 0 0 0
331 1 1 0 673.7893318257696 639.3750217902576 648.132180751935 0 0 0
332 1 1 0 682.9761016966114 661.0735751520649 645.3014296867258 0 0 0
333 1 1 0 682.4981945744757 659.8926241488276 644.7243745218333 0 0 0
1865 1 1 0 672.5067663110169 684.2198327021036 658.9874967795681 0 0 0
335 1 1 0 669.1226231876043 674.6129344647444 642.6056866154073 0 0 0
336 1 1 0 653.0788571155762 679.6161268483314 647.5037162893245 0 0 0
337 1 1 0 668.8787950028917 669.1455433938415 683.6921662205924 0 0 0
338 1 1 0 640.6929700350651 676.1336176324654 639.6314655239316 0 0 0
339 1 1 0 675.1431285624706 659.38199061683 645.2403080819086 0 0 0
340 1 1 0 665.577098789879 659.2391692627345 644.2932241964367 0 0 0
341 1 1 0 639.0773245031673 682.1430076404093 644.9793576203986 0 0 0
342 1 1 0 683.3315363687796 659.1757505664943 643.8796607001019 0 0 0
343 1 1 0 682.8942506616289 658.595141572851 642.711971260216 0 0 0
3631 1 1 0 647.2993482645383 663.8426572839383 638.7682796100098 0 0 0
8329 1 1 0 671.875229236451 638.9626530121561 669.8267493758891 0 1 0
346 1 1 0 652.9106231325893 678.1338523110455 645.5976887233808 0 0 0
347 1 1 0 649.6649025775819 665.3198076538583 639.8208034790122 0 0 0
3648 1 1 0 650.895357437127 659.1864692105062 683.8445865609383 0 0 0
349 1 1 0 656.2024887003212 679.8163262210967 645.2840428272998 0 0 0
350 1 1 0 645.9717743542307 671.0042456648728 639.8643033866773 0 0 0
351 1 1 0 668.1141401206985 658.2431045956214 644.709386612741 0 0 0
352 1 1 0 651.0763002731778 683.2283440675907 658.2210482208116 0 0 0
3700 1 1 0 648.728033308017 658.4458551245764 683.3814657885071 0 0 0
3121 1 1 0 660.5591800838733 662.3944878756612 639.1921175813693 0 0 0
355 1 1 0 661.4327465521183 657.2418948997739 644.5886403119237 0 0 0
356 1 1 0 644.5741122434509 640.7888556810071 641.9099622834581 0 0 0
357 1 1 0 661.3271956961436 656.4791095282435 647.0426411866977 0 0 0
358 1 1 0 655.7973907736773 667.7103224840815 645.0772702318608 0 0 0
359 1 1 0 670.1438333001469 657.1604421888738 643.499026598565 0 0 0
360 1 1 0 659.8044533902024 680.7675068932765 643.1313434063014 0 0 0
361 1 1 0 652.2097277299854 666.6620139119553 642.1000623312776 0 0 0
362 1 1 0 654.0672753611801 667.1799299902583 643.5095789303844 0 0 0
363 1 1 0 681.2310306754953 681.4916468578999 642.0257199658452 0 0 0
364 1 1 0 647.0316970321968 661.716555125201 683.3235824308834 0 0 0
365 1 1 0 675.9963397407064 654.8528804430889 639.4990185121472 0 0 0
366 1 1 0 656.814450180334 674.6627375184617 642.0271150414701 0 0 0
367 1 1 0 661.120861098336 641.5851807944588 653.0469145587307 0 0 0
1121 1 1 0 678.274420242911 654.5276981752125 638.7127869393568 0 0 0
369 1 1 0 661.3269204987823 641.3627806447306 650.3341143900764 0 0 0
370 1 1 0 654.9117773486978 675.3548044923798 643.1438823771723 0 0 0
14869 1 1 0 683.9556865305161 653.007411859844 664.5799036265937 0 0 0
435 1 1 0 649.1471295403643 665.741590021392 638.6409486720256 0 0 0
3951 1 1 0 665.5259646417842 639.3404093306926 638.6669431133017 0 0 1
374 1 1 0 665.8620805913364 646.6022827630828 657.1244273262412 0 0 0
375 1 1 0 647.1320390729155 663.0695841746752 683.216089573081 0 0 0
376 1 1 0 642.7454908783366 646.5634311385985 640.3604997749102 0 0 0
377 1 1 0 671.9737251837893 672.7555961008603 647.6970445742719 0 0 0
378 1 1 0 660.499403771211 643.5569229317882 655.2037370179721 0 0 0
379 1 1 0 683.2955805807242 668.6269500368501 641.18982953659 0 0 0
380 1 1 0 646.1692965196075 641.4004047947352 669.9729837091659 0 0 0
381 1 1 0 669.1137950656562 641.7588730526649 658.3886339218667 0 0 0
382 1 1 0 672.1563157761863 640.4738432635227 660.6943614717843 0 0 0
383 1 1 0 682.4890935156716 681.7588311857323 649.9862987381822 0 0 0
384 1 1 0 659.9408138674968 656.1415278310055 646.6289718810295 0 0 0
385 1 1 0 659.0068746716576 655.7144383750951 647.5959947065659 0 0 0
386 1 1 0 659.3101474939779 656.6335842601761 645.4602413690062 0 0 0
387 1 1 0 657.9232580115522 656.3981592425633 645.1821626952228 0 0 0
388 1 1 0 658.0315786039922 658.4139592050677 643.719950451673 0 0 0
389 1 1 0 657.2504178522521 657.3848405251929 644.3764754990503 0 0 0
390 1 1 0 639.4925061647 671.4519981246351 682.2589331275401 0 0 0
391 1 1 0 656.2547193757792 660.1160904034411 643.5861290257188 0 0 0
392 1 1 0 640.5519347495195 645.098625170662 666.5307441960637 0 0 0
393 1 1 0 655.5579467427948 660.8595832463375 642.47885775561 0 0 0
394 1 1 0 657.8639521050634 654.9083275930502 647.1023004022403 0 0 0
395 1 1 0 657.1153524874965 654.4793781516445 648.3405689145699 0 0 0
396 1 1 0 657.1262588647133 655.6818051206938 646.1136123076852 0 0 0
397 1 1 0 655.9909192438771 656.2959031151232 646.5258967587453 0 0 0
398 1 1 0 655.9016313449424 657.6710936479705 644.5551200675397 0 0 0
399 1 1 0 655.2283902863841 657.0230200543975 645.647006651033 0 0 0
400 1 1 0 655.314143727165 658.7972118245697 644.0160578574215 0 0 0
401 1 1 0 653.9490705045629 659.1434546630575 644.2667488271948 0 0 0
402 1 1 0 654.2338808538676 661.1012406970307 642.8017604052661 0 0 0
403 1 1 0 653.6941752379311 660.5167684367345 644.0264833426289 0 0 0
404 1 1 0 653.849221476209 662.3629430236854 642.4278097441027 0 0 0
405 1 1 0 653.5314758350984 663.2143434085926 643.4591574948076 0 0 0
406 1 1 0 657.0853650116053 656.0353690072494 648.7097411306597 0 0 0
407 1 1 0 658.4052580983899 656.6138972957252 648.6236030029424 0 0 0
408 1 1 0 656.0807565167594 656.7258454599802 647.9357205893313 0 0 0
409 1 1 0 655.7605220714146 658.0930843191784 648.109290636781 0 0 0
410 1 1 0 654.1797148101255 657.7670138830603 646.2087868715677 0 0 0
411 1 1 0 654.5992148288677 658.5590993386643 647.3572080510684 0 0 0
412 1 1 0 653.2887413883748 658.5140791775655 645.4067644213809 0 0 0
413 1 1 0 652.6323034701867 659.5088846704537 646.1795160207921 0 0 0
414 1 1 0 653.71470253989 661.3562239447361 645.1456125644521 0 0 0
415 1 1 0 653.5566596950238 660.5813502743158 646.3628919400425 0 0 0
416 1 1 0 654.0718561014277 662.6821122485795 644.7386951047691 0 0 0
417 1 1 0 655.4395950601479 663.3296744513824 644.4792559737989 0 0 0
418 1 1 0 670.0462629480646 640.8807722124438 676.338623732961 0 0 0
419 1 1 0 645.7791320053617 646.5597214230759 660.1868298443262 0 0 0
420 1 1 0 672.6427922684345 665.824624639677 683.5900648593587 0 0 0
421 1 1 0 638.8556911904333 641.1326659796763 666.631653794924 0 0 0
422 1 1 0 656.9655174478265 680.9280286079176 645.7995238316344 0 0 0
423 1 1 0 657.7045219979295 661.3263066537262 641.4244280058765 0 0 0
424 1 1 0 638.6046744396039 646.9678013620164 666.0042078450675 0 0 0
425 1 1 0 641.1019191223716 648.2987021965694 640.0269134315257 0 0 0
426 1 1 0 645.0813078442214 676.5831288052052 646.8786560566349 0 0 0
427 1 1 0 655.6550811059469 662.676593148949 640.7886305863876 0 0 0