LAMMPS data file via write_data, version 2 Aug 2023, timestep = 50000, units = metal

14672 atoms
1 atom types

643.8213146726692 720.358685327307 xlo xhi
644.1027449823529 720.7862550176538 ylo yhi
644.1627735567318 720.7262264432749 zlo zhi

Masses

1 12.0107

Atoms # full

1 1 1 0 645.2742996303919 651.9215724629721 646.8398164745635 0 0 0
2 1 1 0 647.5302746445365 650.7481512523966 647.2139082223431 0 0 0
3 1 1 0 646.4502272753987 651.5561430103804 647.5728343666351 0 0 0
4 1 1 0 646.6598422498625 652.2765682373371 648.7597352401356 0 0 0
5 1 1 0 647.9303198260749 652.9265776923511 648.7586846076528 0 0 0
6 1 1 0 648.8382876015188 651.359415147991 647.2534293335721 0 0 0
7 1 1 0 649.0752211431275 652.2855870016961 648.2306929845671 0 0 0
8 1 1 0 647.8480215209398 654.2905297546628 648.9849640852337 0 0 0
9 1 1 0 650.3571883187715 652.8619564783057 648.1010076613608 0 0 0
10 1 1 0 650.6736588733413 653.1120771971189 646.6440585355158 0 0 0
11 1 1 0 645.5136163029957 652.3924280326175 645.5134293173066 0 0 0
12 1 1 0 648.076985916697 656.02431103317 650.6622266847254 0 0 0
13 1 1 0 647.3086932835197 654.9704275132677 650.0568696073083 0 0 0
14 1 1 0 655.6906525124407 656.9429516695194 657.0426164232925 0 0 0
15 1 1 0 650.6233886714948 655.0727269551198 652.6835936854787 0 0 0
16 1 1 0 648.1955470535045 655.959610446503 652.0486636182935 0 0 0
17 1 1 0 649.4030666353317 655.899641406909 652.774673658386 0 0 0
18 1 1 0 646.9323731207014 655.8590817386146 652.7034596917533 0 0 0
19 1 1 0 651.7688076604891 655.6169997078279 653.2075434237387 0 0 0
20 1 1 0 648.0970222320997 656.9875437671499 654.4839249757206 0 0 0
21 1 1 0 649.3868462497654 656.6399034298046 654.0015458639583 0 0 0
22 1 1 0 650.8770380039472 651.9322710377377 645.9844676782637 0 0 0
23 1 1 0 649.5562890785635 651.1335366743536 645.9211877135517 0 0 0
24 1 1 0 653.2584275066982 651.8451121859146 645.5428423161993 0 0 0
25 1 1 0 647.3790036080974 649.817927649882 646.1883627345397 0 0 0
8579 1 1 0 674.7952156936902 644.4023937845254 670.7686688989937 0 1 0
27 1 1 0 651.9476473015621 651.374826364511 645.4335683979522 0 0 0
28 1 1 0 654.6237104548524 653.2309747734673 654.2409258493885 0 0 0
29 1 1 0 658.345415985924 649.544085208951 648.6554294484121 0 0 0
30 1 1 0 658.3770085245978 650.0413374261609 647.3724811317658 0 0 0
31 1 1 0 657.5193468515283 650.3020793242061 649.5266967843417 0 0 0
32 1 1 0 657.3940062087887 650.742617341481 646.7559614179013 0 0 0
33 1 1 0 654.6611375418104 655.1732743325204 655.8624776387876 0 0 0
34 1 1 0 655.3927844743232 655.5745246993629 657.0413752830294 0 0 0
35 1 1 0 654.866142463893 653.8509327552848 655.4927333020356 0 0 0
36 1 1 0 655.4702803920107 652.9599532745485 656.3977044894324 0 0 0
37 1 1 0 655.6707117287144 654.6594235541037 658.0496574563962 0 0 0
38 1 1 0 655.7531995202023 653.3412152313743 657.6902435003423 0 0 0
39 1 1 0 656.1963895852161 652.3844339751495 658.5835930378462 0 0 0
40 1 1 0 645.9910100625223 655.0077468832552 652.1493386537568 0 0 0
41 1 1 0 656.6565111483055 651.5582021586043 647.6548643452749 0 0 0
42 1 1 0 656.5162895700154 651.1957153801643 649.0172576761531 0 0 0
43 1 1 0 655.2642696162798 651.5005004057807 649.5813644226565 0 0 0
44 1 1 0 654.9446098815741 651.5021592702561 650.8932486634941 0 0 0
45 1 1 0 653.4400355740925 651.6102711241464 651.3914151548748 0 0 0
46 1 1 0 654.1601589337156 652.0715831069746 648.7350609560735 0 0 0
47 1 1 0 655.9202669023234 652.6190685498135 647.1656483224422 0 0 0
48 1 1 0 652.4668266213164 651.6881952298055 650.4259139617344 0 0 0
49 1 1 0 654.5781631204678 652.5806142206274 647.4882113176042 0 0 0
50 1 1 0 657.0131956729178 652.3369533593655 645.0099373882509 0 0 0
51 1 1 0 656.2142595604212 653.1781984021515 645.9021750398231 0 0 0
52 1 1 0 655.4703633609971 654.2252969583907 645.3594992882041 0 0 0
53 1 1 0 646.8831080506084 656.4330629658579 653.9828194597626 0 0 0
54 1 1 0 645.6893383009015 656.5881181566755 654.7415319687206 0 0 0
55 1 1 0 656.9844673453925 650.911629359487 645.37097894332 0 0 0
56 1 1 0 655.1262818608878 657.4894072365938 655.8701392378997 0 0 0
57 1 1 0 652.9433953575636 657.1651282357625 654.882698092511 0 0 0
58 1 1 0 654.1347607176932 656.5673959259168 655.2809632514086 0 0 0
59 1 1 0 652.8124726732556 658.5832910655982 655.1688935788661 0 0 0
60 1 1 0 655.1776623282038 658.7630184665787 655.3271228120518 0 0 0
61 1 1 0 653.9682287540325 659.4669911301168 655.3399717940601 0 0 0
62 1 1 0 651.8539953622502 656.573081828371 654.2216379902658 0 0 0
63 1 1 0 656.6341927095222 656.4568652973841 659.2615510423514 0 0 0
64 1 1 0 656.2512334450948 657.3404710420413 658.2821047111033 0 0 0
65 1 1 0 648.038441579336 658.0520878812271 655.4117920611179 0 0 0
66 1 1 0 650.5847788512086 657.1855543052732 654.5467481867006 0 0 0
67 1 1 0 650.4232893633393 658.3272712771538 655.2551504646665 0 0 0
68 1 1 0 651.5696048077538 659.110552539115 655.509369340245 0 0 0
69 1 1 0 649.1820050976986 658.6406501356903 655.820273442271 0 0 0
70 1 1 0 649.1437207382438 659.5790514832214 656.864667451804 0 0 0
71 1 1 0 648.0889659578143 659.5813328221401 657.7099986107739 0 0 0
72 1 1 0 656.1931701621309 652.7482144519324 659.9370112429389 0 0 0
73 1 1 0 656.2023311916143 655.0898134808349 659.2420821375229 0 0 0
74 1 1 0 656.3052277596221 654.1266731701945 660.2346146147818 0 0 0
75 1 1 0 656.4878292351754 654.4534992122685 661.6132279956887 0 0 0
76 1 1 0 645.658557900919 657.4878766230806 655.8695524908585 0 0 0
77 1 1 0 646.8752858651825 658.1813761866367 656.161362922413 0 0 0
78 1 1 0 646.9009999069922 658.9768261313418 657.3325033345315 0 0 0
79 1 1 0 645.7722355235494 659.0262607691544 658.2025377868745 0 0 0
80 1 1 0 649.6975214898933 649.7284006428081 645.5671695963371 0 0 0
2211 1 1 0 681.7136056649857 676.5796665761945 646.7271417435982 0 0 0
82 1 1 0 654.9203099933777 651.9139527698154 653.8032950916496 0 0 0
83 1 1 0 654.594062159481 651.5797387182723 652.4990862083985 0 0 0
84 1 1 0 655.9256509261321 651.6508861644961 655.9595321419066 0 0 0
85 1 1 0 656.5544371052023 648.936753503393 655.266076015258 0 0 0
86 1 1 0 655.4660144123355 649.6466494105458 654.787721323045 0 0 0
87 1 1 0 655.3669308295471 651.0424083128706 654.8099808424779 0 0 0
88 1 1 0 657.1943766565118 649.449234155787 656.3943863760627 0 0 0
89 1 1 0 656.6616802499223 650.7546958733944 656.8082336306439 0 0 0
90 1 1 0 658.1882638148608 649.3482456877971 658.6044503792161 0 0 0
91 1 1 0 656.6509302400002 651.1370892480926 658.1612406148463 0 0 0
92 1 1 0 657.3161432467011 650.3544319274606 659.0890858298972 0 0 0
93 1 1 0 652.7347694590239 652.1386153078823 649.113075361278 0 0 0
2113 1 1 0 644.8529205026821 668.5627745074041 652.4477991491829 0 0 0
95 1 1 0 653.657459083107 652.9962976206341 646.3984286014905 0 0 0
96 1 1 0 651.9354249076523 652.9286785533926 648.23396796981 0 0 0
97 1 1 0 652.5164185108747 653.6309460102448 647.2040524070525 0 0 0
98 1 1 0 654.1346343327558 654.1810705108261 645.6323131421435 0 0 0
99 1 1 0 653.2521682147525 654.8433669670028 644.8200281534075 0 0 0
100 1 1 0 651.4963508226358 654.3336141715886 646.3300120556637 0 0 0
101 1 1 0 651.8609666776362 654.8594886446505 645.0804922896257 0 0 0
102 1 1 0 653.6149478817307 660.8086873563177 655.5680030465548 0 0 0
103 1 1 0 652.5282406690433 661.1383909224447 656.3205576154609 0 0 0
104 1 1 0 651.3993484714509 660.2773407256351 656.2949803146249 0 0 0
105 1 1 0 650.2266032306812 660.3566828769056 657.0852122001074 0 0 0
106 1 1 0 652.3533856709472 662.0985344979686 657.3614158837421 0 0 0
107 1 1 0 651.4741335147077 661.9214261225867 658.4691470694448 0 0 0
108 1 1 0 650.2485859032143 661.2644985770685 658.1734695431833 0 0 0
109 1 1 0 649.1810784093562 661.1958226113943 659.1095671326025 0 0 0
110 1 1 0 648.0653246302556 660.4290013281006 658.8244931837677 0 0 0
111 1 1 0 645.8600739154228 659.7179145694244 659.4350142694412 0 0 0
112 1 1 0 647.0522310251031 660.2745337880727 659.8652524722487 0 0 0
113 1 1 0 647.4843403160282 660.5488503272347 661.2154281123597 0 0 0
114 1 1 0 659.940647197497 647.8671295848957 649.7842266138372 0 0 0
115 1 1 0 659.0270186208211 648.3928480903446 648.8443237397231 0 0 0
116 1 1 0 658.1544078204457 648.8005458985225 657.2770770557293 0 0 0
117 1 1 0 659.12360076491 647.7271092227998 656.9927183072638 0 0 0
118 1 1 0 659.946373753442 647.3901125808127 646.8226581885214 0 0 0
119 1 1 0 659.1144093755 646.563851560231 656.1298512554573 0 0 0
120 1 1 0 659.6482576770595 645.3544159094508 656.6837580389589 0 0 0
121 1 1 0 657.2638097898418 647.9909609194451 654.5755444318474 0 0 0
122 1 1 0 651.7576837445966 662.029869121061 659.8484650023612 0 0 0
123 1 1 0 649.5579046915375 661.3582477732339 660.4477852044486 0 0 0
124 1 1 0 648.8428347666717 660.787358391903 661.5239390091214 0 0 0
125 1 1 0 650.9601824436892 661.5689902004027 660.858050158497 0 0 0
126 1 1 0 650.9982974415452 660.9600966076665 662.1847048771176 0 0 0
127 1 1 0 656.4653551001305 651.8082543138157 660.8917215297541 0 0 0
128 1 1 0 657.273480867101 650.7171443251918 660.4329944723206 0 0 0
129 1 1 0 658.891333064437 647.8252310168684 652.7654868148827 0 0 0
130 1 1 0 656.4512380973152 652.2199954161617 662.2588465918677 0 0 0
131 1 1 0 656.8900348485583 653.5239153107713 662.5479682517204 0 0 0
132 1 1 0 659.3478823711207 646.8666495695778 650.5709234683949 0 0 0
133 1 1 0 658.7356873062132 647.2940748189862 647.8752927939466 0 0 0
134 1 1 0 661.2284415504276 647.5705353063879 646.9533436099916 0 0 0
135 1 1 0 659.2473625925403 646.6023501326488 654.7591632441734 0 0 0
136 1 1 0 658.4766393571706 647.5061828153782 654.0598054680125 0 0 0
137 1 1 0 658.519489466684 647.3233088673072 646.2261817858316 0 0 0
138 1 1 0 658.4472958794728 646.012394139258 648.4904243314589 0 0 0
139 1 1 0 657.9250488143624 646.3198340893726 645.5840492709913 0 0 0
140 1 1 0 659.3026118637046 646.8314047455401 651.9562443803009 0 0 0
141 1 1 0 657.4840169544508 648.6563413819559 663.4518778820542 0 0 0
142 1 1 0 656.7038703220426 651.0240427226182 663.2904170832921 0 0 0
143 1 1 0 657.1982324397028 648.4905739188608 664.8367641352277 0 0 0
144 1 1 0 657.571240354245 649.7503055352964 662.6815615451222 0 0 0
145 1 1 0 658.3659705528198 650.2741881944446 661.343127528289 0 0 0
146 1 1 0 658.8541435816819 651.3405906292027 662.2839971967213 0 0 0
147 1 1 0 664.0432141850804 648.6816650987403 644.8577269560196 0 0 0
148 1 1 0 661.9433923618176 647.7710748327887 645.7854636712839 0 0 0
149 1 1 0 668.4739743411596 648.9190404097774 645.4706773002193 0 0 0
150 1 1 0 665.334728133493 649.068192522912 645.3506183007393 0 0 0
151 1 1 0 663.3311313780453 647.9477198565426 645.7742176185635 0 0 0
152 1 1 0 659.3917455768833 649.1769409346074 659.3739355975816 0 0 0
153 1 1 0 660.4980818860572 648.6427087088397 658.7542673180614 0 0 0
154 1 1 0 661.7718134885981 649.1172755312551 659.1088666499385 0 0 0
155 1 1 0 662.9239658057976 648.4214639574438 658.7316249163771 0 0 0
156 1 1 0 665.3937381267532 648.3074393006887 658.840142405251 0 0 0
157 1 1 0 664.1636581360478 649.0029545333642 659.0658547701365 0 0 0
158 1 1 0 666.4975594758429 648.9265883289324 659.4879106894314 0 0 0
159 1 1 0 662.807389945106 647.3044729162035 657.8401874819267 0 0 0
160 1 1 0 665.2778877801742 646.9894596225869 658.2629443928406 0 0 0
161 1 1 0 661.8490728597819 650.2947220040533 659.8647774300392 0 0 0
162 1 1 0 666.1720390400634 648.1891514267542 645.9726233472568 0 0 0
163 1 1 0 664.0274317713047 647.4996061967511 646.9015914441927 0 0 0
164 1 1 0 661.95620685763 647.4798644065976 648.188073908623 0 0 0
165 1 1 0 664.1941054804632 650.2314712600701 659.7903169651557 0 0 0
166 1 1 0 661.3495769660208 647.6110843570191 649.4769607506156 0 0 0
167 1 1 0 660.410945378621 647.7526762808145 657.6879126650537 0 0 0
168 1 1 0 661.4651071848542 646.8081378531494 657.5819436188243 0 0 0
169 1 1 0 665.4900367834116 647.4427407112454 646.9350663926969 0 0 0
170 1 1 0 662.0294654697693 646.9124414990055 650.4947713716178 0 0 0
171 1 1 0 661.3695592822635 646.3276269606251 651.595367255976 0 0 0
172 1 1 0 659.5801427593225 649.9766986039053 660.5191706702353 0 0 0
173 1 1 0 666.5045331503101 650.0044192012823 660.3900110541584 0 0 0
174 1 1 0 660.7057967011094 650.7639371419319 660.5106657308966 0 0 0
175 1 1 0 663.0183731042043 650.9955409271265 659.932102095537 0 0 0
176 1 1 0 663.0289290701845 652.2389567285608 660.604251590929 0 0 0
177 1 1 0 665.294468209162 650.6807478692789 660.5067301076302 0 0 0
178 1 1 0 663.3579132654323 647.2587305594645 648.1097532970836 0 0 0
179 1 1 0 659.6551046437337 652.3815680749564 661.848175334115 0 0 0
180 1 1 0 660.7540689051118 651.9941230678396 661.0889188655983 0 0 0
181 1 1 0 661.8244315264567 652.8028913922068 661.1242765453219 0 0 0
182 1 1 0 664.21526291628 652.6819820356488 661.2084993269157 0 0 0
183 1 1 0 665.3404184935061 651.8990509508566 661.2006515232557 0 0 0
184 1 1 0 664.1475771183542 653.9207851224567 661.8951520946124 0 0 0
185 1 1 0 661.7208558961139 654.0675225991462 661.7549087005789 0 0 0
186 1 1 0 662.9758241707832 654.6830934179143 662.0537316770173 0 0 0
187 1 1 0 666.3663515497125 652.3047745871669 662.0302978277152 0 0 0
188 1 1 0 645.5027634763192 667.0465467474244 654.2847366509053 0 0 0
189 1 1 0 646.0820482173269 667.0789918469364 655.5776898169627 0 0 0
190 1 1 0 666.0720748565287 646.5297919959822 647.8489816786051 0 0 0
191 1 1 0 664.0532208561293 646.7360605182367 649.1594278451763 0 0 0
192 1 1 0 665.3868055793746 646.3236433343824 649.0356165395036 0 0 0
193 1 1 0 652.1623931768561 661.1959052548855 662.9752211857192 0 0 0
194 1 1 0 657.5563797019524 653.4852878668655 667.5439198952813 0 0 0
195 1 1 0 656.7163176103543 651.2787588775723 668.8174806750852 0 0 0
196 1 1 0 657.0235404817819 653.6993360277129 668.8653147072982 0 0 0
197 1 1 0 657.386281451266 652.3016680549123 666.7980365528525 0 0 0
198 1 1 0 657.124796318054 651.1634435083357 667.5239087374166 0 0 0
199 1 1 0 657.1494497047539 649.8475817488483 666.9451169747811 0 0 0
200 1 1 0 656.8789377371735 648.6105373934819 667.6233978022399 0 0 0
201 1 1 0 657.4301963201958 652.081407038175 665.4159584234195 0 0 0
202 1 1 0 656.7807736827664 650.9664362486556 664.859424598192 0 0 0
203 1 1 0 657.0030876667604 649.7413600732225 665.5057366120379 0 0 0
204 1 1 0 658.2291427634731 651.579382923975 663.4783112694605 0 0 0
205 1 1 0 658.271668194583 652.7253101246293 664.4104259252464 0 0 0
206 1 1 0 652.2270092637398 661.5253529935179 664.3673335475467 0 0 0
207 1 1 0 658.1721764788642 653.6344385607658 663.2314192519076 0 0 0
208 1 1 0 649.730738517546 660.4709595035378 662.5413568190154 0 0 0
209 1 1 0 649.6230194240605 660.2316672899086 663.9071937363871 0 0 0
210 1 1 0 659.4018582427551 653.6899251069906 662.3917207761142 0 0 0
211 1 1 0 660.4708208058164 654.6016935973707 662.2005857912872 0 0 0
212 1 1 0 660.4429620526599 655.9719483350367 662.3440502314162 0 0 0
213 1 1 0 662.9233644443211 656.0347890228045 662.375282042939 0 0 0
214 1 1 0 664.2568948862978 656.6228872817336 662.5182969642839 0 0 0
215 1 1 0 665.2782040017596 655.7195370049018 662.9531471281889 0 0 0
216 1 1 0 665.3289179664151 654.4432248478013 662.4700905442289 0 0 0
217 1 1 0 661.6216662654462 656.6774884086834 662.5364693701355 0 0 0
218 1 1 0 664.7413644804694 657.8623524124163 662.135776938123 0 0 0
219 1 1 0 666.0094425720872 658.3251079396508 662.6533271980559 0 0 0
220 1 1 0 666.3966952928434 653.5559045597212 662.6955329151245 0 0 0
221 1 1 0 666.4384428622409 656.1289578563373 663.6230312427173 0 0 0
222 1 1 0 666.6441690959696 657.4585809347025 663.631295631731 0 0 0
223 1 1 0 667.5196998617242 655.2988912584635 663.9710081603708 0 0 0
224 1 1 0 666.931997410577 659.4902080719356 662.4727692012061 0 0 0
225 1 1 0 668.0301456714117 659.2843905057917 663.3409200208127 0 0 0
226 1 1 0 667.8922732214668 658.0388904923993 664.004199711148 0 0 0
227 1 1 0 667.220313971395 660.3622972334593 661.4182765347294 0 0 0
228 1 1 0 668.7367492861564 666.2716475011938 668.8018491092979 0 0 0
229 1 1 0 667.5959649179063 666.6102724404957 669.4594317634085 0 0 0
230 1 1 0 667.45623177966 653.9805573102329 663.4426126449492 0 0 0
231 1 1 0 646.2327717022289 654.4554968179565 650.8009512833534 0 0 0
232 1 1 0 664.113465329961 646.7193672551841 657.4005320801884 0 0 0
233 1 1 0 667.540109862671 651.5417779249832 662.0712654161449 0 0 0
234 1 1 0 644.5262735224485 658.6097123272993 657.666206423172 0 0 0
235 1 1 0 644.4613093847422 657.7244616792188 656.5753143382472 0 0 0
236 1 1 0 644.5925753744649 655.7690652906631 654.5863541108447 0 0 0
237 1 1 0 644.646975672685 654.4280404611892 654.0470358050644 0 0 0
238 1 1 0 663.3904380144182 646.572917607697 650.3729554578778 0 0 0
239 1 1 0 661.9676664094992 645.8927416081757 652.7467002006415 0 0 0
240 1 1 0 665.9205644088036 665.4711263684784 646.0150696339547 0 0 0
241 1 1 0 667.6320738062434 650.4905704432822 661.12938832213 0 0 0
242 1 1 0 658.747482538295 645.8465761161171 649.815969213229 0 0 0
243 1 1 0 666.3463434014778 646.0416590129657 658.1359072269287 0 0 0
244 1 1 0 663.5707620782719 666.9454455944383 648.5480102416026 0 0 0
245 1 1 0 664.6423091962461 666.1773342151253 646.2710604653623 0 0 0
246 1 1 0 664.0212700277201 645.9224744544769 651.4089227607342 0 0 0
247 1 1 0 663.389189217397 645.8725955025026 652.6515464683964 0 0 0
248 1 1 0 665.3433883526977 645.4701812400164 651.2824352878821 0 0 0
249 1 1 0 663.675181878869 666.6715012566793 647.1160459024334 0 0 0
250 1 1 0 666.2554780922947 662.047989777363 644.8159485146073 0 0 0
251 1 1 0 667.7118972195947 648.3490956925028 659.3396438140657 0 0 0
252 1 1 0 666.0359011423611 645.7070835579623 650.0791895286142 0 0 0
253 1 1 0 667.4145321516711 645.8601849663545 659.0532703827654 0 0 0
254 1 1 0 662.7306831901185 667.6440081482615 646.5198862951331 0 0 0
255 1 1 0 663.521891472 645.8763958329981 655.013903509185 0 0 0
256 1 1 0 667.5610880603717 647.9589926484396 645.9727845381628 0 0 0
257 1 1 0 668.0767191798906 646.7935528053827 646.5645945414834 0 0 0
258 1 1 0 667.4161835911572 646.2119034898877 647.6705829158446 0 0 0
259 1 1 0 668.0588852986826 645.5490725682351 648.7115634699807 0 0 0
260 1 1 0 667.4123832059352 645.2874978688236 649.9272126722757 0 0 0
261 1 1 0 664.208866939638 645.8323564004149 653.7798095386083 0 0 0
262 1 1 0 664.3319888471723 646.0115618467805 656.1567024193719 0 0 0
263 1 1 0 666.0697572826575 645.1467007788049 652.4293061373291 0 0 0
264 1 1 0 665.5163817396831 645.387774737242 653.6626393676404 0 0 0
265 1 1 0 665.5538139729861 645.2387711140627 656.020015976901 0 0 0
266 1 1 0 668.0841269135078 644.748833070459 651.0430309426318 0 0 0
267 1 1 0 665.5625579932943 664.2545035492305 645.2645421433175 0 0 0
268 1 1 0 668.1360786983519 646.9802777245262 659.3378092296363 0 0 0
269 1 1 0 668.6284518223194 651.8867595961851 662.8810587697614 0 0 0
270 1 1 0 659.4849591575703 645.5240519829176 652.5279669949292 0 0 0
2133 1 1 0 661.3321568815471 678.1146766055333 646.9927918934549 0 0 0
272 1 1 0 667.3856762467693 644.6529531431321 652.3076801330724 0 0 0
3717 1 1 0 675.4178720568528 644.4730125220218 659.8162065481395 0 1 0
2682 1 1 0 681.4902562487609 678.2525855566681 669.8928445104706 0 0 0
275 1 1 0 668.8121401394842 648.5841931996862 660.3696454254185 0 0 0
276 1 1 0 668.8644574677603 649.7989677999581 661.0382628454868 0 0 0
277 1 1 0 668.6465846841985 653.1510987890429 663.5483092118312 0 0 0
278 1 1 0 659.8484185674633 645.4075248026163 653.9871021946674 0 0 0
279 1 1 0 666.4030626870368 645.084602463806 657.146914856681 0 0 0
280 1 1 0 645.5087996326959 653.1865154103682 650.7380726505262 0 0 0
309 1 1 0 649.0641859319023 651.866319168267 644.6388656397804 0 0 0
282 1 1 0 652.8141001824038 661.0695172257545 665.5835021122413 0 0 0
283 1 1 0 656.990181865919 647.2861073870005 665.564171990785 0 0 0
284 1 1 0 650.9296281669331 662.0731441081433 664.7629941052131 0 0 0
285 1 1 0 650.0803389271301 660.9483691806553 664.9805202847615 0 0 0
286 1 1 0 656.8075617138223 647.3432282964822 666.9760170299941 0 0 0
287 1 1 0 650.9600927444765 662.9952640356784 665.8865565320943 0 0 0
288 1 1 0 648.4758299066953 649.0091639214124 645.6636193001783 0 0 0
289 1 1 0 653.2586621026487 662.2939998291027 666.4655497641979 0 0 0
290 1 1 0 650.3626999217227 660.4926098355651 666.3337741837847 0 0 0
291 1 1 0 657.0423370081874 646.0253861769824 665.0150393579103 0 0 0
292 1 1 0 656.2006289517562 646.2157562829852 667.5625879368926 0 0 0
293 1 1 0 652.1709014616167 663.268654692184 666.7151786937696 0 0 0
294 1 1 0 649.8680222752298 662.7451774409366 666.7886084506936 0 0 0
295 1 1 0 649.4975379834905 663.7222474370466 667.6877078143053 0 0 0
5692 1 1 0 682.0135487561039 667.6396181717679 682.4399612516734 0 0 0
297 1 1 0 651.8824760584895 663.9511649909821 668.0345692138361 0 0 0
298 1 1 0 649.8374480828893 661.407263280382 667.2777690570601 0 0 0
299 1 1 0 646.6402927948991 650.3618446644348 645.101830232373 0 0 0
300 1 1 0 651.8316197623014 660.3681667873818 666.5482961261181 0 0 0
5081 1 1 0 666.3044097706969 646.9810176848104 682.2687811827709 0 0 0
302 1 1 0 645.5051051170594 652.4757807746985 649.5454222543739 0 0 0
303 1 1 0 650.6037811585412 664.6313263959726 668.0021677917465 0 0 0
304 1 1 0 648.7131251013599 663.3351313664277 668.8532993568743 0 0 0
305 1 1 0 644.3471252511009 651.767226705968 649.0978706710632 0 0 0
306 1 1 0 653.5786761866724 661.228335243728 667.5278063601611 0 0 0
307 1 1 0 661.0264592743874 645.5037383080971 657.1181052693265 0 0 0
308 1 1 0 654.8399459338355 660.7470691647736 668.0309227352574 0 0 0
1063 1 1 0 643.9082286703511 649.3246029389902 651.942270259086 1 0 0
310 1 1 0 666.8686481798974 666.273411075698 645.3715020335196 0 0 0
311 1 1 0 656.6305305394615 644.8309906949642 665.6265629948653 0 0 0
312 1 1 0 656.0500505080424 644.8697579090915 666.9014097638412 0 0 0
313 1 1 0 650.1253849965792 661.3981294968561 668.6716704095275 0 0 0
314 1 1 0 652.3195323450368 660.6056938012963 667.8818191480456 0 0 0
5920 1 1 0 644.8702563834654 645.1859836643426 679.421222090383 0 0 0
8565 1 1 0 668.9197363675288 644.4424237202253 679.9291381303112 0 1 0
317 1 1 0 646.7272566290021 651.7770489282848 645.0002422705984 0 0 0
318 1 1 0 651.556706685173 661.2641896737483 668.9338999394015 0 0 0
5394 1 1 0 644.2839722254095 649.7437207759742 673.5702659078311 0 0 0
320 1 1 0 662.2352633571157 645.3262030881665 655.0334209437528 0 0 0
321 1 1 0 644.8646607942397 652.896316475263 651.9826794230444 0 0 0
322 1 1 0 645.1480907564542 654.0681748228263 652.8154647512158 0 0 0
274 1 1 0 668.1276475432174 644.4447592790834 653.4689180630227 0 0 0
324 1 1 0 666.5161657678749 663.4328382453957 644.6304480977124 0 0 0
325 1 1 0 667.9549024222424 665.768590292086 644.615485693655 0 0 0
7111 1 1 0 673.3838980735891 682.3965133499162 681.7929297811266 0 0 0
394 1 1 0 644.0674807150331 644.8820945161157 667.1510727931253 0 0 0
328 1 1 0 657.0697413785641 667.0236466629381 655.8269945283762 0 0 0
329 1 1 0 654.8832848632707 667.9581477739927 656.0318296345764 0 0 0
2342 1 1 0 679.420165141278 681.9532799392141 651.454680451295 0 0 0
3672 1 1 0 671.5479614660638 644.2481009845359 663.6376990494265 0 1 0
332 1 1 0 655.3603950834729 659.4026101456011 668.0037428947139 0 0 0
920 1 1 0 675.6603411520956 645.9500567423181 644.3801482615349 0 0 0
1019 1 1 0 671.4617715340844 654.9325426626697 645.2584315675699 0 0 0
315 1 1 0 648.1205678216569 648.188834619388 644.6413613292591 0 0 0
7271 1 1 0 681.8953148466635 675.4815608801972 681.6997995203698 0 0 0
1604 1 1 0 643.9547748184765 667.6894010533675 651.7188455715326 1 0 0
338 1 1 0 649.1269905884408 662.1207066519158 669.3665962180912 0 0 0
339 1 1 0 656.24840213213 667.9984259373434 656.472911733898 0 0 0
5567 1 1 0 678.6737600574346 649.962445621043 682.1443987823956 0 0 0
341 1 1 0 661.9183120312335 644.7636766966153 656.2775288654608 0 0 0
342 1 1 0 666.6613545942328 665.5857806073034 669.8806567613295 0 0 0
971 1 1 0 677.8586291287293 668.1533771559391 645.0984708140016 0 0 0
344 1 1 0 657.0674627193944 667.1771418643866 654.4272044337248 0 0 0
345 1 1 0 656.3401160406104 649.8406223836196 644.7235992958985 0 0 0
9687 1 1 0 664.2989295449328 664.5582086066789 644.643063701675 0 0 1
347 1 1 0 654.6184616823836 667.3863299874217 654.7511345257518 0 0 0
348 1 1 0 662.8071958059778 668.1581574037383 648.8829226710933 0 0 0
349 1 1 0 661.4269455708279 645.4722084916946 653.895886983755 0 0 0
81 1 1 0 651.6849698607797 650.3215091723484 644.2292212889835 0 0 0
351 1 1 0 662.3270404828561 668.5559024685963 647.5576773992121 0 0 0
352 1 1 0 668.7242385759145 667.986842355649 644.8041900942497 0 0 0
353 1 1 0 656.3918508156801 648.7890395494228 668.9347642471183 0 0 0
1035 1 1 0 671.6656451486238 644.2195779983274 651.9471665340373 0 0 0
2223 1 1 0 682.003264648187 679.1369650196589 654.6614224382397 0 0 0
11566 1 1 0 660.6570256861273 679.1548365717792 646.2850479395855 0 0 1
357 1 1 0 655.5328213657173 646.3247226424623 668.7592890456574 0 0 0
358 1 1 0 648.3621466942509 667.1299633854541 669.0905901737676 0 0 0
359 1 1 0 658.1192499984569 645.0542797826851 646.2453034262505 0 0 0
360 1 1 0 656.209714974831 659.0801438825908 669.0463523378128 0 0 0
361 1 1 0 655.4605916024656 661.5166622700206 668.9549535897843 0 0 0
2381 1 1 0 681.554765202217 678.1565953854733 663.1131148221176 0 0 0
2694 1 1 0 644.055922473104 670.2881055498094 650.9693852234898 1 0 0
2390 1 1 0 681.7871901329331 680.3715280639688 667.6717576457455 0 0 0
5410 1 1 0 645.3455762743721 645.8634282552977 678.3798208755518 0 0 0
366 1 1 0 658.3683696172186 644.8654956576191 647.6571680893187 0 0 0
3079 1 1 0 658.73429759787 644.5524080404048 650.4267009230252 0 1 0
368 1 1 0 668.5007471652772 662.384014343053 656.6346877180488 0 0 0
369 1 1 0 653.4013658369286 667.5923870976798 654.0363992540459 0 0 0
370 1 1 0 648.478377804214 667.5105596842587 656.0619910877526 0 0 0
7112 1 1 0 671.1027315190601 681.7839691417371 681.3441457733257 0 0 0
2611 1 1 0 680.0515750310851 675.3079113179681 644.8307822590834 0 0 0
373 1 1 0 669.4510063889257 646.9877174896378 660.2366607239919 0 0 0
5059 1 1 0 660.7538067797569 650.912329811308 681.7100240299494 0 0 0
375 1 1 0 655.7337214333157 667.365126914035 653.9321870061394 0 0 0
5108 1 1 0 665.6867762440615 660.8433791489565 681.7953794617334 0 0 0
326 1 1 0 644.1072457744427 651.7401580944754 652.3186934364095 0 0 0
378 1 1 0 667.1800321943762 667.9035079700042 669.902066053608 0 0 0
4930 1 1 0 649.484464123658 644.398798084296 669.5626927872484 0 0 0
380 1 1 0 668.7546323840295 655.8192186807997 664.3415129919733 0 0 0
9738 1 1 0 667.3958430865189 652.2190183163975 645.0008957875051 0 0 1
383 1 1 0 668.5707946135606 662.580159091753 655.317032543592 0 0 0
384 1 1 0 657.2354907333699 659.9926755779544 669.4089330228995 0 0 0
386 1 1 0 668.4962853794135 660.911417426349 661.1196216524407 0 0 0
387 1 1 0 650.2154985360384 665.6058946633738 668.9450048855223 0 0 0
388 1 1 0 654.5143179966544 645.4177944374837 668.8982808480066 0 0 0
3635 1 1 0 676.5067761138222 644.8433158381639 663.411049947801 0 1 0
395 1 1 0 669.0410778622573 644.5885330739497 660.26903469438 0 0 0
391 1 1 0 668.8937404901342 663.0366485110594 652.283512638403 0 0 0
392 1 1 0 669.0439042125793 663.1809453441075 650.9305523644396 0 0 0
988 1 1 0 671.1713978350718 668.1860855317099 644.3134818015278 0 0 0
2126 1 1 0 663.3448202627868 679.0283915238605 646.3435329346186 0 0 0
2116 1 1 0 658.6640900964225 677.8432761447476 646.1996318965333 0 0 0
396 1 1 0 648.1047873230444 664.5016108849476 669.4527874451302 0 0 0
397 1 1 0 648.757543160949 665.7861240227377 669.1619722128689 0 0 0
5932 1 1 0 643.998265864824 649.6177761752409 677.3787851415126 1 0 0
399 1 1 0 656.733073428293 652.4730234602517 669.5073087813267 0 0 0
400 1 1 0 669.4662490675165 645.7092278111219 660.9669283462637 0 0 0
401 1 1 0 669.9858896381278 650.5278561671033 661.5818651744904 0 0 0
402 1 1 0 668.7323060402332 661.6933588284982 659.9485240157713 0 0 0
403 1 1 0 669.8294868853867 651.197142968919 662.7845880901976 0 0 0
404 1 1 0 669.3318056419083 646.290750379783 646.2246108745899 0 0 0
405 1 1 0 669.4023128835114 645.1816638293404 648.5375248757708 0 0 0
406 1 1 0 668.8946711112296 657.2056741217795 664.3926713664089 0 0 0
407 1 1 0 670.6064211921946 660.4427643136955 646.9163323038078 0 0 0
408 1 1 0 670.835187089618 647.1064776845656 657.0902848944903 0 0 0
409 1 1 0 670.5660068664921 661.5438656650662 648.2328207603276 0 0 0
410 1 1 0 669.3244034244469 659.7895956499107 663.1532172743689 0 0 0
411 1 1 0 669.6622943640873 662.078285111649 658.9840621833289 0 0 0
412 1 1 0 669.608626028404 662.2101271434069 657.5522643737114 0 0 0
413 1 1 0 669.5882645392079 660.6957907351593 662.0634054120441 0 0 0
414 1 1 0 669.9452446209194 662.951346047424 653.2122003954246 0 0 0
415 1 1 0 669.7345970684798 662.6482408113054 654.5484713766372 0 0 0
416 1 1 0 670.3100162552784 662.8825286953592 650.3257192852149 0 0 0
417 1 1 0 669.858670898159 653.6269313844087 664.1221685613639 0 0 0
418 1 1 0 670.6051478652856 662.7247970835446 648.9634981339765 0 0 0
419 1 1 0 670.9541335012824 662.234427628271 659.6292623190714 0 0 0
420 1 1 0 669.9106494865686 655.0256001041122 664.4981431028359 0 0 0
421 1 1 0 670.3927069804613 645.4761570850425 661.9413496260295 0 0 0
319 1 1 0 644.6199094188306 659.907952854882 660.0716700271895 0 0 0
423 1 1 0 670.8876491313649 662.3833360124817 655.3851866516515 0 0 0
424 1 1 0 670.8200777058059 662.3500814552907 656.8507475292564 0 0 0
425 1 1 0 670.198088100822 657.781135629214 664.3741057583552 0 0 0
426 1 1 0 670.3605115167435 659.0931875600509 663.8058919045957 0 0 0
427 1 1 0 671.2809675792705 650.107258575158 661.2755511249098 0 0 0
428 1 1 0 671.237619498882 662.8292176202245 652.6250668958361 0 0 0
429 1 1 0 670.8866927730462 661.220980103659 662.0224540907736 0 0 0