LAMMPS data file via write_data, version 2 Aug 2023, timestep = 50000, units = metal

5200 atoms
1 atom types

639.4784436463393 720.4475563536492 xlo xhi
640.2427497422972 720.3922502576928 ylo yhi
639.614272898461 721.020727101529 zlo zhi

Masses

1 12.0107

Atoms # full

1 1 1 0 673.9954447421323 653.6618253220172 665.6486633473339 0 0 0
2 1 1 0 664.196522059266 649.6388548848704 660.9408102010052 0 0 0
3 1 1 0 643.0503472825303 676.4626861300457 673.3444187171975 0 0 0
4 1 1 0 663.9276656596688 649.5958083710494 663.4092491281555 0 0 0
5 1 1 0 668.3520915365701 646.5157917204458 665.5733730925783 0 0 0
6 1 1 0 650.2317759772104 669.0880806410134 660.4644285923617 0 0 0
7 1 1 0 649.6002429974026 668.5554986102662 659.2904117651847 0 0 0
8 1 1 0 650.6706974513681 670.4421333748055 660.441788820453 0 0 0
9 1 1 0 651.0879236241173 670.9738065537381 659.1855162790342 0 0 0
10 1 1 0 666.9205643474065 649.0987310391141 658.2179393424349 0 0 0
11 1 1 0 645.5316286759772 672.6911624887166 673.7934076530371 0 0 0
3203 1 1 0 643.6144823361906 666.4370945083338 673.9515922779435 1 0 0
3846 1 1 0 659.5846249566157 651.6423731902398 670.1529575355793 1 1 0
1493 1 1 0 666.986312762568 641.9500838415454 660.2872350020655 0 1 0
4648 1 1 0 649.1720373918668 655.0741851940287 673.333628952766 1 1 0
486 1 1 0 652.4468895732082 672.9016321548551 671.5196954163687 0 0 0
17 1 1 0 666.7951315905016 650.3003232032743 670.3698924864551 0 0 0
3115 1 1 0 648.4267104348668 659.1824996813278 673.7415129838428 1 0 0
2846 1 1 0 646.9404498528068 665.8942836157328 673.0914122826999 1 0 0
528 1 1 0 665.4430611443211 648.4185239503223 676.5546415875224 0 0 0
21 1 1 0 667.8480351736957 649.0670182355767 664.7672528097072 0 0 0
3143 1 1 0 642.6757218357103 668.7701998550335 674.5911074684724 1 0 0
23 1 1 0 665.1374749125239 648.8380316370377 665.4286370162996 0 0 0
24 1 1 0 642.3629325371834 675.2919685043037 673.6993913884476 0 0 0
3941 1 1 0 659.882542776523 643.3003074600775 666.2797371377293 1 1 0
26 1 1 0 645.3702318122786 670.5867727322519 672.6121391185046 0 0 0
3087 1 1 0 645.6997183208307 666.4872995191256 672.6996657252588 1 0 0
2599 1 1 0 640.0922654084194 645.0978510486409 651.8740335819438 1 0 0
3116 1 1 0 649.9007947704516 661.2161523771819 674.6243146764012 1 0 0
1243 1 1 0 648.4638013627848 672.7313964088598 673.7069245276147 0 0 0
1789 1 1 0 661.0354152133773 640.5232806735643 656.9015117042346 0 1 0
1195 1 1 0 648.8629954634773 658.2167317994414 678.6958615590052 0 0 0
400 1 1 0 650.678770151024 677.8783402200665 672.7789342286725 0 0 0
1379 1 1 0 641.6663977147003 671.2692849992889 674.8160200864935 0 0 0
2558 1 1 0 644.8145872840241 642.9078910533381 648.0104260729446 1 0 0
1409 1 1 0 660.3582413098082 641.7682139322947 656.7754590039353 0 1 0
870 1 1 0 651.0529780993966 672.2092419554178 673.6823598278038 0 0 0
3129 1 1 0 646.1427202814746 660.5630133312866 674.0978653616087 1 0 0
5080 1 1 0 650.1415315929787 654.5635031285618 672.3905555229554 1 1 0
2427 1 1 0 655.0273867381626 653.5908982400255 675.2987932738656 0 1 0
2601 1 1 0 640.2065659034267 643.1716045743536 648.2139384697285 1 0 0
113 1 1 0 645.8779913456248 641.3577911934557 645.6913013703628 0 0 0
1703 1 1 0 659.3715043777819 642.134811896941 659.6152838855612 0 1 0
1552 1 1 0 664.5099556641164 641.5552708532118 656.5519742181011 0 1 0
45 1 1 0 663.6533147905062 648.3073292547641 660.8671993362142 0 0 0
465 1 1 0 668.5086731729011 647.3109455098194 661.8335164559793 0 0 0
1294 1 1 0 665.8775258916182 649.7307225924748 672.8565866641908 0 0 0
1848 1 1 0 662.397557245163 640.6044541410139 657.2550662823173 0 1 0
2674 1 1 0 642.1614582323155 642.4854898158422 646.0439529204917 1 0 0
5189 1 1 0 649.2707587827337 650.2726207879494 678.1712883746823 1 1 0
1684 1 1 0 659.9163425094416 642.4999765363935 658.0545197239481 0 1 0
1683 1 1 0 659.5374167157437 643.9717271459205 657.8177659941193 0 1 0
4843 1 1 0 651.923577951684 657.3901931101576 672.4888460050759 1 1 0
2885 1 1 0 678.5776581818178 653.8007521842403 676.3546531160579 0 0 0
55 1 1 0 668.4719838293548 648.1373683775639 663.6546910525182 0 0 0
1810 1 1 0 663.2496209823244 643.182314752786 660.5163738044846 0 1 0
466 1 1 0 665.933485963336 646.3059352679868 665.6382240283388 0 0 0
449 1 1 0 666.4077405866988 647.8401557037207 660.1524684786639 0 0 0
461 1 1 0 667.6566427327791 647.2899437942635 660.0418258716938 0 0 0
1686 1 1 0 659.6595022530345 645.0280418265532 660.20190942514 0 1 0
2893 1 1 0 642.7334664196952 643.7222141233945 646.5221557009777 1 0 0
900 1 1 0 647.8954605816465 668.207571610374 678.9786945417314 0 0 0
171 1 1 0 668.4180074953207 678.2339907885125 664.4810495103756 0 0 0
1348 1 1 0 645.0007362038194 669.5772644246937 676.5335691702877 0 0 0
5196 1 1 0 655.5436984681776 652.7836655665567 673.0901107812937 1 1 0
3121 1 1 0 645.0069256207767 661.71657205082 676.1434591317685 1 0 0
67 1 1 0 663.8504257701281 648.2331879620366 663.28428016736 0 0 0
3068 1 1 0 640.4943990127331 676.7256950239604 669.9967692842656 1 0 0
5178 1 1 0 650.8558040288424 655.4863724224497 671.5733431318685 1 1 0
4343 1 1 0 659.0723840918911 653.859357724801 671.7949667251257 1 1 0
1543 1 1 0 665.8813361478793 642.6658495643536 663.6495951246485 0 1 0
72 1 1 0 675.273077157603 653.4956642395587 666.3191613971551 0 0 0
2884 1 1 0 677.1710059875247 653.0918993736739 669.5855495965983 0 0 0
125 1 1 0 651.114786325115 672.4472494961576 671.2702548901307 0 0 0
463 1 1 0 663.8903130984497 647.353821411599 659.7978173926048 0 0 0
76 1 1 0 641.7767456406 673.9798613205605 675.6259684316605 0 0 0
77 1 1 0 663.5658299255703 644.9553691217773 658.8960731954891 0 0 0
1851 1 1 0 663.4293639282669 640.5866771466845 656.300135696339 0 1 0
3176 1 1 0 649.5570297883789 657.4023656783152 672.5111910894045 1 0 0
3102 1 1 0 641.8166598226244 672.7176086386219 672.9082738803794 1 0 0
81 1 1 0 665.0661195771055 645.9793212992647 662.6416610984505 0 0 0
2715 1 1 0 676.950080164902 678.6058276622077 663.6959020051816 0 0 0
4618 1 1 0 654.0647909779582 651.9203683910971 670.4927266242162 1 1 0
84 1 1 0 646.3586613743299 670.0178002431245 673.4684758479822 0 0 0
1423 1 1 0 664.1365107131318 642.7927714734055 657.199373915173 0 1 0
86 1 1 0 644.0054246161461 673.8455418250601 671.660737273547 0 0 0
87 1 1 0 663.4587127068045 647.6621715503155 662.0784254824298 0 0 0
4433 1 1 0 658.8119866507299 647.7633324020853 668.287600928018 1 1 0
2489 1 1 0 642.9071510570767 642.0900718237572 641.1568988639751 1 0 0
2695 1 1 0 674.8017826450703 653.6466476061903 669.8187233465898 0 0 0
91 1 1 0 669.0003501890333 652.0739457450513 668.6600022541519 0 0 0
4811 1 1 0 652.9893505774874 656.4221843682104 674.8523120360873 1 1 0
3192 1 1 0 651.8189946453764 658.2313121573827 673.6017994277487 1 0 0
792 1 1 0 644.2562291925207 668.3392155752867 676.4345686010321 0 0 0
95 1 1 0 644.9384100910152 674.0182166354989 673.8925976252812 0 0 0
96 1 1 0 667.1739309404842 645.6589220565669 665.5305619175527 0 0 0
1102 1 1 0 647.7963546162479 665.7245816672493 675.2478496410913 0 0 0
99 1 1 0 645.1652014528355 643.5390309141478 646.7307479571771 0 0 0
1363 1 1 0 652.5879166718611 673.8224542542915 672.6225961214125 0 0 0
100 1 1 0 641.240855130571 678.57160433924 673.7599974761355 0 0 0
101 1 1 0 645.7407243150922 643.3969398622065 644.5358553990784 0 0 0
179 1 1 0 667.8362066269697 643.5418761031484 662.5271287532717 0 0 0
264 1 1 0 653.1084611205878 673.890384325493 669.4638820341571 0 0 0
2728 1 1 0 673.8599930877785 655.5369999487721 667.951272401394 0 0 0
4997 1 1 0 653.5362941791242 656.0091125100723 673.5873758730274 1 1 0
1676 1 1 0 657.3404856816172 643.3337926774179 655.6389896721763 0 1 0
1318 1 1 0 644.2450654613755 670.7874404074136 676.6464323780872 0 0 0
1765 1 1 0 664.8356077626771 641.799149041276 661.6765818621085 0 1 0
644 1 1 0 666.3307022539641 646.9499679763184 678.2510404483575 0 0 0
1692 1 1 0 657.0507651069817 644.8718441905262 660.3293561675094 0 1 0
1837 1 1 0 662.7414859120696 641.3744932367584 658.4577059836638 0 1 0
2527 1 1 0 677.2406952502914 652.524255114873 672.5433676821439 0 0 0
3138 1 1 0 645.5501609994046 653.4254179805286 678.2655465911873 1 0 0
4702 1 1 0 650.8515495929393 653.3767985439993 672.7368424593574 1 1 0
1787 1 1 0 661.3968729367615 653.8442092759938 669.9856420335831 0 1 0
3131 1 1 0 645.1961756657541 657.6724966886492 673.6133904804909 1 0 0
117 1 1 0 643.9476848913703 673.136839020401 676.028943144045 0 0 0
1747 1 1 0 665.1517552903789 643.7631074911204 657.5204060209021 0 1 0
3393 1 1 0 643.3774833436871 667.8347457826808 673.7030210694636 1 0 0
2749 1 1 0 644.2640886509012 668.4500282219898 672.7504168451919 1 0 0
121 1 1 0 642.3122988529793 677.7488351884763 673.2597542113455 0 0 0
1434 1 1 0 659.9536107623576 648.8976700163338 663.0843292032106 0 1 0
457 1 1 0 666.0536786855938 647.0416224092337 662.9977243094667 0 0 0
3097 1 1 0 644.0484430252787 672.4717118278149 671.9452593139488 1 0 0
444 1 1 0 668.0838242642695 643.941195967662 661.1855289322912 0 0 0
1840 1 1 0 663.2386238674701 640.949247200618 659.7198631699438 0 1 0
1896 1 1 0 667.5820606938361 643.2418804547103 660.0625404708123 0 1 0
772 1 1 0 648.6399899787067 663.3505663458003 674.9070405432944 0 0 0
129 1 1 0 671.6990421989323 656.0046234209833 666.8154621885859 0 0 0
2864 1 1 0 675.2202339973484 655.5836485570411 668.5793934329678 0 0 0
3262 1 1 0 648.9509989394955 656.4720802370334 673.4220697814891 1 0 0
191 1 1 0 672.4833174988487 678.2884792626583 666.7689627041657 0 0 0
2746 1 1 0 677.5633341633503 652.8572933078201 673.9030048463475 0 0 0
1148 1 1 0 644.3024173566588 665.9000859142122 676.2121768846405 0 0 0
1688 1 1 0 655.9039714935825 642.8180569148672 659.6345271401564 0 1 0
5181 1 1 0 652.296230177009 653.6507500982884 670.7665372911284 1 1 0
137 1 1 0 667.7045979366467 652.59179641054 668.0837857093271 0 0 0
138 1 1 0 669.1671744531342 650.7069385599592 670.5857917413026 0 0 0
142 1 1 0 675.5155470528806 654.9747185755657 662.6562189423043 0 0 0
531 1 1 0 665.662840217658 649.2681787299206 674.0622765549856 0 0 0
2676 1 1 0 642.7309395025225 674.3222127850846 671.2769827118229 1 0 0
2719 1 1 0 641.4176721845346 642.9500036525156 652.0954720681202 1 0 0
1863 1 1 0 665.7255802365744 640.9893841120091 657.029896763512 0 1 0
144 1 1 0 650.4989713510917 666.2773162563481 659.733943761686 0 0 0
145 1 1 0 650.9069537479074 665.0804018250736 659.0511698051012 0 0 0
146 1 1 0 649.796507834872 667.1879210689857 658.8949551759938 0 0 0
147 1 1 0 650.108402532073 667.1401448558678 657.4877472201877 0 0 0
148 1 1 0 650.136748538973 668.4909675114785 657.011494273453 0 0 0
149 1 1 0 651.5558402544393 665.2281427983618 657.7792946395656 0 0 0
150 1 1 0 652.9588856008332 665.111305136691 657.4549387414747 0 0 0
151 1 1 0 650.9118843990904 666.1516410178381 656.88976709039 0 0 0
152 1 1 0 651.62928718078 666.4752985788815 655.7033863674878 0 0 0
153 1 1 0 651.0418913402129 668.8777545480751 655.989247267061 0 0 0
154 1 1 0 651.9550650011838 667.864511475211 655.5002435813548 0 0 0
155 1 1 0 651.5277721093277 670.2400337946583 656.0687239476188 0 0 0
156 1 1 0 652.8947086157527 670.3230219226416 656.4835522349025 0 0 0
157 1 1 0 653.2299159350358 664.7060123369092 656.1261394039059 0 0 0
158 1 1 0 654.5214594471908 664.2299035866512 655.815056463047 0 0 0
159 1 1 0 652.542405464066 665.5118092532254 655.1535109673507 0 0 0
160 1 1 0 653.4574386503981 666.1193182722703 654.2504615933512 0 0 0
161 1 1 0 653.349595453104 668.2596379419471 655.2943454344016 0 0 0
162 1 1 0 654.213929698116 667.1262221084444 654.9482058472577 0 0 0
163 1 1 0 653.8630071508643 669.4253559782621 655.9276299492765 0 0 0
164 1 1 0 655.0722138468052 669.2226889929215 656.6863770203976 0 0 0
165 1 1 0 649.7196926250906 669.3540147243042 658.087338990942 0 0 0
166 1 1 0 650.2556810027694 670.655875922222 658.0895988282521 0 0 0
167 1 1 0 650.6187592290083 671.0822512612531 656.7802166092816 0 0 0
2702 1 1 0 642.6727858735522 675.5256223264996 670.5549423591262 1 0 0
4517 1 1 0 659.5401099544217 649.0112660422645 670.351904168904 1 1 0
4196 1 1 0 653.194577113603 655.8280489252115 671.2146094670464 1 1 0
5041 1 1 0 652.0806235831367 657.6096045373919 674.8843377030441 1 1 0
3750 1 1 0 650.7466636481373 656.8738486507315 671.9169539755222 1 0 0
5180 1 1 0 648.7511549168592 651.5989352408485 678.1303500362735 1 1 0
4428 1 1 0 662.7842963984547 649.4173704054227 667.688267047615 1 1 0
2792 1 1 0 645.5818486625941 667.8936936481264 672.6783566371877 1 0 0
1398 1 1 0 666.3095517491506 643.1886867465855 657.9990699857856 0 1 0
1384 1 1 0 660.8227981559043 650.9986171382184 664.3312238429329 0 1 0
1088 1 1 0 646.2928386811293 664.8447749520587 677.0727330560028 0 0 0
4701 1 1 0 652.8757138326685 652.2054941854126 672.544767369039 1 1 0
180 1 1 0 646.0314272200272 642.840344927419 645.8036607201473 0 0 0
181 1 1 0 647.2533659921911 667.9554647085233 674.3652752341953 0 0 0
1759 1 1 0 661.1948089025741 652.8490676180022 666.2224018823032 0 1 0
183 1 1 0 669.0460942548343 646.0140759022586 661.9613421236654 0 0 0
184 1 1 0 666.1951409597058 650.842156591511 669.1352224922202 0 0 0
379 1 1 0 648.2935647752921 674.6625168579819 671.714714466697 0 0 0
1397 1 1 0 661.2517687412401 653.5040712841682 667.406155272883 0 1 0
93 1 1 0 668.1655751621452 644.4854845907206 663.5712522990815 0 0 0
188 1 1 0 644.0896607116033 674.1942749914724 675.0327141537807 0 0 0
3127 1 1 0 645.7716507922199 661.9325456725295 673.915419441252 1 0 0
2927 1 1 0 643.316973107368 642.8871668506906 643.6596588939447 1 0 0
1420 1 1 0 658.611600896944 640.7888281413067 655.4504051227595 0 1 0
192 1 1 0 669.366616089622 651.9321042097935 669.9810162276176 0 0 0
1053 1 1 0 647.8970864485593 664.4657917146202 674.6202694360098 0 0 0
530 1 1 0 665.4587991192349 648.9525551642256 675.3416357238128 0 0 0
195 1 1 0 639.9472543093544 678.7313976844592 673.1158776383082 0 0 0
196 1 1 0 652.2377805987541 670.1267327642465 662.2709554240288 0 0 0
197 1 1 0 651.2628538207523 671.0034261517035 661.6359537181472 0 0 0
198 1 1 0 654.0315266044045 670.5293660060153 660.8539196471482 0 0 0
199 1 1 0 653.5371941333769 670.645969412714 662.1852211646612 0 0 0
200 1 1 0 654.2790440606153 669.1322493014133 660.5317338609617 0 0 0
201 1 1 0 653.3095379827005 668.1752831348472 661.1070920255204 0 0 0
202 1 1 0 652.1678738390054 668.7410933717018 661.8652601548132 0 0 0
203 1 1 0 650.9507083076147 668.1820419643552 661.2976123078546 0 0 0
204 1 1 0 653.334840087696 671.545322704147 660.0181576891597 0 0 0
205 1 1 0 652.4922168981948 671.1760239255066 658.9373884527915 0 0 0
206 1 1 0 652.8073291936681 672.6548859486192 660.7775861998878 0 0 0
207 1 1 0 651.6606732162231 672.383716591313 661.5647290628623 0 0 0
1700 1 1 0 659.8391165737385 643.9856270372387 661.1467513589818 0 1 0
529 1 1 0 665.479922909855 648.0643663940518 677.8868663465589 0 0 0
210 1 1 0 668.1524320327655 649.8738055062782 670.1563096494452 0 0 0
211 1 1 0 647.5550878655482 666.6087528295714 674.1642867949735 0 0 0
267 1 1 0 667.1148309699989 643.9190508749605 658.8557134641698 0 0 0
1905 1 1 0 657.7987937620829 653.0305202172947 673.6015956330135 0 1 0
1680 1 1 0 658.8475651860186 644.1911837412532 656.6255545454691 0 1 0
1559 1 1 0 663.0498878343475 643.6363961554672 659.1693685079799 0 1 0
1113 1 1 0 650.3395721566727 671.6240931040768 674.7541869252101 0 0 0
1073 1 1 0 642.89344341804 668.5407082602994 676.0116607237966 0 0 0
3107 1 1 0 642.336951848496 670.1286256855567 674.1297827557623 1 0 0
219 1 1 0 673.4709143132865 654.1593884373784 667.8725928453571 0 0 0
220 1 1 0 655.1296613708396 668.2763416906421 657.7771820687823 0 0 0
1544 1 1 0 663.1285040364089 642.696760409408 658.1842017182853 0 1 0
1678 1 1 0 655.9918924541819 643.2417051114674 658.2578766866508 0 1 0
223 1 1 0 646.1839349360581 642.968518535193 643.2962727110156 0 0 0
1679 1 1 0 657.355576922492 644.4724802170226 656.6991626293037 0 1 0
1237 1 1 0 652.7068535071837 675.2653763450651 675.1241967760084 0 0 0
226 1 1 0 665.9997101672985 647.6526228343969 666.2178293891594 0 0 0
3286 1 1 0 647.699570104556 660.4516260815074 674.0149607055433 1 0 0
462 1 1 0 667.1225329942574 647.8965772250089 667.1138423881156 0 0 0
229 1 1 0 642.7619862484901 674.7783219288459 674.9158098896424 0 0 0
230 1 1 0 667.8257440913094 650.0389583603215 658.7132453646277 0 0 0
231 1 1 0 665.2470444254523 650.010190762299 659.7785024454546 0 0 0
232 1 1 0 669.38364620915 652.1787239691607 659.9381589157476 0 0 0
233 1 1 0 665.8482353128603 651.4179349390613 659.5081091986629 0 0 0
234 1 1 0 666.612668314926 652.4329940935097 660.5039437469952 0 0 0
235 1 1 0 667.2569641397853 651.3666770356064 658.8880056518127 0 0 0
236 1 1 0 668.8212191303086 653.1349647693104 662.0761154995943 0 0 0
237 1 1 0 670.5192010100013 653.6803389959209 664.0906486519273 0 0 0
238 1 1 0 669.2435019057241 651.7645142993808 662.539149570814 0 0 0
239 1 1 0 668.8652837513632 649.6874799024221 659.6472368315361 0 0 0
240 1 1 0 670.9188469653106 652.3237433628669 663.4653112619937 0 0 0
241 1 1 0 671.0906380728645 652.3540797510528 661.9732247065868 0 0 0
242 1 1 0 670.6229620055847 650.9937144453787 663.9498177608467 0 0 0
243 1 1 0 670.309301644724 650.0581908026518 662.8845056872437 0 0 0
244 1 1 0 669.7377238361755 650.7301496039325 660.0422434623036 0 0 0
245 1 1 0 670.2383799891177 650.9615659659453 661.4778191105414 0 0 0
246 1 1 0 668.0214920900112 652.4315375339445 659.653990060922 0 0 0
247 1 1 0 669.8723331817312 652.894236239073 661.0308491580287 0 0 0
68 1 1 0 675.1932330158887 654.9313056643092 663.930052401864 0 0 0
2533 1 1 0 678.5137310736038 655.6868975804248 675.7242560755965 0 0 0
250 1 1 0 652.5461935820944 668.0470926321044 658.3554272825197 0 0 0
251 1 1 0 653.4107534241746 669.1454292422331 658.3482840314269 0 0 0
252 1 1 0 653.0982299800751 666.9303643028248 659.0392144644109 0 0 0
253 1 1 0 651.368811509604 666.9026235930937 660.6742386362362 0 0 0
254 1 1 0 653.0560734652988 670.3998358835718 657.89000357664 0 0 0
255 1 1 0 655.0869048295701 666.5710377205457 655.969753235755 0 0 0
256 1 1 0 655.5080963110275 665.2361955946138 655.6896872385034 0 0 0
257 1 1 0 654.805917144297 666.9306208760503 657.369914255995 0 0 0
258 1 1 0 653.791703485214 666.1402614105771 658.0761603497144 0 0 0
1416 1 1 0 666.2868588785192 641.7811351299316 661.4981161326743 0 1 0
3201 1 1 0 648.011101369608 661.8701708613218 673.2943886771949 1 0 0
261 1 1 0 674.3618627148818 653.2536954187332 668.520886322163 0 0 0
4107 1 1 0 657.6528763739536 650.6009335332487 668.8870839473366 1 1 0
4323 1 1 0 654.4572410413075 655.299099341048 670.9314304878351 1 1 0
1161 1 1 0 651.9920952449773 673.2876720201965 673.872405860879 0 0 0
265 1 1 0 653.3909829815003 672.9353696183518 670.4572187865759 0 0 0
4373 1 1 0 655.2461536169394 655.1650371618342 672.0962757288047 1 1 0
511 1 1 0 650.5489431629128 659.2261604603543 675.7748094289495 0 0 0
4945 1 1 0 650.9295139190447 653.0850481302629 674.1638391472542 1 1 0
269 1 1 0 665.3039188446029 647.3628235681953 659.1642012217566 0 0 0
270 1 1 0 668.3942646593076 649.3069374986754 661.6316426594367 0 0 0
1223 1 1 0 648.0023744263175 662.4496797876108 675.780229905909 0 0 0
2710 1 1 0 644.6352276308671 642.7761784079843 650.9560482711818 1 0 0
273 1 1 0 642.2504952611906 677.4671189374304 671.8027727332783 0 0 0
446 1 1 0 664.8108307976673 647.4588856498256 663.9437846672969 0 0 0
3075 1 1 0 642.9914276032949 670.5320618610847 672.9210770730995 1 0 0
276 1 1 0 668.857601673546 646.7058280785544 664.3011947066957 0 0 0
277 1 1 0 671.5536602406521 654.5156256031879 664.6516159933801 0 0 0
278 1 1 0 665.652880779369 648.8739073319362 658.6344101755992 0 0 0
279 1 1 0 654.6340114957959 668.8889233596609 659.1534971174557 0 0 0
1763 1 1 0 660.9237276338433 650.6589915314637 661.938039590533 0 1 0
1695 1 1 0 657.755732442679 645.6609780207319 661.2907055439598 0 1 0
5001 1 1 0 652.0328331615938 655.0564357092771 670.9147575717634 1 1 0
3358 1 1 0 650.6700369824575 660.0616959334545 674.6165674981855 1 0 0
1707 1 1 0 657.6275818751174 640.7336621804025 658.3821978436131 0 1 0
1411 1 1 0 657.2485701224875 640.8928456456528 656.0027761744886 0 1 0
286 1 1 0 664.6718194788335 651.2289728755181 664.9573973133178 0 0 0
287 1 1 0 666.5986866873086 649.4987860780889 665.6131267625012 0 0 0
288 1 1 0 665.2851704069775 651.4373412548734 662.4630050287101 0 0 0
289 1 1 0 665.0248382020211 652.0621398489353 663.8735739040017 0 0 0
290 1 1 0 666.1822142574598 652.7231576751766 661.8049220157105 0 0 0
291 1 1 0 667.0771347985792 649.7700878769639 661.5590760210579 0 0 0
292 1 1 0 668.6710935078278 651.3805183092819 663.7376711000917 0 0 0
293 1 1 0 666.7349835830339 653.4901989557425 663.047391369822 0 0 0
294 1 1 0 664.4489736609698 649.9018670530701 664.6918130477238 0 0 0
295 1 1 0 666.6876870059282 652.3743739504635 665.6443012689238 0 0 0
296 1 1 0 667.3764339389129 650.9463584933893 663.6777380060996 0 0 0
297 1 1 0 665.8267226285199 650.2792821129965 666.7882486723971 0 0 0
298 1 1 0 666.0138267311166 653.0160324866516 664.2726575448771 0 0 0
299 1 1 0 668.0783304889825 653.8610483143761 663.0352879744642 0 0 0
300 1 1 0 666.628407801642 650.6617957954321 662.5290282014427 0 0 0
301 1 1 0 665.3589508899253 651.4862704792715 666.1639287497642 0 0 0
302 1 1 0 669.0816548522014 654.110931342865 664.0387359364515 0 0 0
303 1 1 0 669.4394442000203 650.9614565697301 665.0708910569962 0 0 0
304 1 1 0 666.2080270922793 649.122046066832 660.6857218361346 0 0 0
305 1 1 0 669.0170525358245 649.5472859775924 665.4374520258244 0 0 0
306 1 1 0 666.7742490837039 650.8859602536047 664.9002660967175 0 0 0
307 1 1 0 669.0599308032607 651.7109417405749 666.338275433765 0 0 0
308 1 1 0 664.2506139260421 650.328473393053 662.1481389477053 0 0 0
309 1 1 0 669.2456388866943 649.069035102767 662.7369478716784 0 0 0
310 1 1 0 667.3212056948298 647.4274850747479 662.7772903379772 0 0 0
311 1 1 0 666.0874867564215 649.8928750775792 668.080455428856 0 0 0
312 1 1 0 667.0456978317715 648.8253426739154 668.1883812156514 0 0 0
3638 1 1 0 648.4444819171795 658.343325220209 674.8818792059807 1 0 0
1350 1 1 0 646.3827436381232 667.210703508924 676.4901468233738 0 0 0
315 1 1 0 668.2869906821834 649.267300666643 668.8561904126753 0 0 0
3235 1 1 0 648.2507399578813 656.1738431329459 675.6927481444042 1 0 0
317 1 1 0 669.2584138836393 649.675467666032 667.8110829587878 0 0 0
4342 1 1 0 654.5911295832913 654.2121083877431 670.0200980917563 1 1 0
1780 1 1 0 659.6667621041792 647.271612719955 661.212850346779 0 1 0
4490 1 1 0 658.2795749861301 653.7017508790417 670.6240269161634 1 1 0
863 1 1 0 666.3097964319369 650.2269718657043 671.664447304983 0 0 0
322 1 1 0 670.4715263120427 656.4572980389569 666.9310558709028 0 0 0
607 1 1 0 647.1801182337266 662.6390932550053 676.8266050663472 0 0 0
1236 1 1 0 648.9038016209197 676.2930701364413 673.4397695705969 0 0 0
377 1 1 0 676.6915569796295 652.6650027570357 668.0120601319461 0 0 0
1306 1 1 0 650.3594446794488 672.1815770370445 672.4313607888612 0 0 0
327 1 1 0 669.4461914826506 651.0874251009469 667.5877408132183 0 0 0
1488 1 1 0 666.8412054600025 641.1311982660466 659.1420638077522 0 1 0
329 1 1 0 667.8258948393928 652.4971036968019 666.6577999860846 0 0 0
1191 1 1 0 650.947280592589 672.1028771882279 678.2990491977977 0 0 0
3056 1 1 0 643.5698314558185 643.3675838535935 650.1795793186211 1 0 0
2525 1 1 0 643.6780969604989 643.4988093339446 648.7585982663269 1 0 0
4889 1 1 0 649.1746340705313 653.7650590879123 677.3617181287491 1 1 0
334 1 1 0 667.8038881912668 645.9540497442213 659.8795781080294 0 0 0
335 1 1 0 668.9777117502997 645.6714441625962 663.3673387142971 0 0 0
336 1 1 0 666.8690900892708 645.2773039229867 659.0318261557715 0 0 0
1762 1 1 0 659.4388711540769 641.9287188412359 655.6681494398011 0 1 0
3277 1 1 0 649.1897444000047 662.3933611740316 673.9620810638168 1 0 0
90 1 1 0 667.1711613862332 644.4733596377479 664.6796543464441 0 0 0
2608 1 1 0 641.268426982382 644.0188181291468 648.5583276336067 1 0 0
448 1 1 0 668.6864822064996 648.2950362076152 660.5060117687615 0 0 0
4771 1 1 0 652.2480690344647 652.9533519044494 674.6979821838788 1 1 0
2915 1 1 0 676.337462036145 655.1812879156423 667.7248472828122 0 0 0
344 1 1 0 646.2289377484541 669.588470631303 675.8327642032066 0 0 0
345 1 1 0 644.6429148918124 674.7024191263359 672.6310977350075 0 0 0
1435 1 1 0 664.6020831024371 642.5331616827951 662.9170321097591 0 1 0
443 1 1 0 643.2276153371425 676.5659963888053 671.3447879420569 0 0 0
519 1 1 0 663.2052487507314 647.9044364384372 678.9464904226772 0 0 0
262 1 1 0 652.1146469341718 674.8822364919473 667.5142178819135 0 0 0
784 1 1 0 652.5694442487247 677.2484528289613 673.8556718572465 0 0 0
351 1 1 0 668.4213593579847 647.5389826174105 666.6318784531319 0 0 0
4093 1 1 0 657.1895660012065 650.2060813142926 672.9976827060178 1 1 0
353 1 1 0 640.0457702930876 678.4153166306702 671.726266109854 0 0 0
1466 1 1 0 660.704361280321 649.7014815788378 660.9688024122186 0 1 0
1705 1 1 0 658.6893283381668 641.5004921723307 658.3684568538157 0 1 0
3013 1 1 0 675.976932092264 655.369862964565 671.0616680284254 0 0 0
3126 1 1 0 645.0362106626445 662.4861614242059 674.9890854875972 1 0 0
358 1 1 0 671.956690455129 654.7791299114524 666.0334669353774 0 0 0
1079 1 1 0 647.0716995084232 665.9450568613845 676.4669115488027 0 0 0
3636 1 1 0 644.9716621145157 663.8840589320765 675.0971559060473 1 0 0
131 1 1 0 641.129594780746 672.3698436530753 674.0804779987023 0 0 0
1129 1 1 0 642.0750523803789 671.6245197924607 676.1365772869001 0 0 0
4383 1 1 0 659.6112757036522 650.4071109592995 669.5015909419901 1 1 0
1856 1 1 0 663.8157089526353 641.8816161056959 660.6619696349017 0 1 0
268 1 1 0 641.8845406902902 674.2036587396695 672.5242960844841 0 0 0
1317 1 1 0 649.0397309750253 672.5921451831307 672.4797435697942 0 0 0
1485 1 1 0 663.9712673934797 643.8343357447128 662.8136046495205 0 1 0
3782 1 1 0 663.5886313868309 650.4302579467789 669.8729116167905 1 1 0
1738 1 1 0 660.0187323189751 648.5680423322249 661.6295171311267 0 1 0
370 1 1 0 663.2948256842152 645.4688200066386 661.1658471501219 0 0 0
2791 1 1 0 672.8296827461926 656.3842900010396 667.509981034247 0 0 0
3091 1 1 0 644.170416968137 669.8474084383323 672.5402787253223 1 0 0
4359 1 1 0 653.033321219935 656.5843483225976 672.3959601132428 1 1 0
494 1 1 0 640.6109570290911 674.9690071191261 672.8250617680195 0 0 0
375 1 1 0 663.3845685497406 646.0001535386493 659.8747464126685 0 0 0
2876 1 1 0 642.8380644068292 671.8669194545265 672.4819555708834 1 0 0
479 1 1 0 666.5442345971777 652.1736058337308 668.7521002861553 0 0 0
66 1 1 0 663.4023865441445 644.142269113557 661.5288199023116 0 0 0
2727 1 1 0 675.2903187435313 655.0414572346967 669.8974420874207 0 0 0
3221 1 1 0 648.423552137533 661.0791408334347 675.3864426543365 1 0 0
381 1 1 0 664.955360537247 646.1615842724945 664.6291325413081 0 0 0
4379 1 1 0 656.71043245573 653.5136101196973 672.8756335885943 1 1 0
1486 1 1 0 666.9224051371929 642.446225524302 662.6266550761186 0 1 0
384 1 1 0 644.7516470701025 671.9722287677679 675.9913612442091 0 0 0
385 1 1 0 645.2061565572659 671.9905166578492 672.5907584402582 0 0 0
1675 1 1 0 656.6178383723368 642.1693294344719 656.0790745866905 0 1 0
2481 1 1 0 641.6162733279006 675.8895936736368 669.6235975156853 1 0 0
5039 1 1 0 654.4853099269175 655.0245944354797 673.2920383957685 1 1 0
1226 1 1 0 642.8315530374538 670.696328858243 676.8764659434397 0 0 0
4402 1 1 0 656.5170105191829 654.5621101009724 671.9671706925253 1 1 0
2721 1 1 0 678.7340635732737 652.3078059732431 674.4880851086714 0 0 0
392 1 1 0 645.7064762417789 671.8363223634833 674.9414042580827 0 0 0
931 1 1 0 652.8615853336717 675.8873443174767 673.8071239490191 0 0 0
394 1 1 0 664.7063127738546 645.0494486718252 658.1020597022905 0 0 0
2496 1 1 0 640.0376691566812 641.0342466224758 652.8221654222052 1 0 0
1681 1 1 0 656.834990016948 644.3412749875082 658.0024924381737 0 1 0
397 1 1 0 672.9444621710157 653.9456497377886 666.5552999148724 0 0 0
3377 1 1 0 644.6871951845283 665.7133556996165 673.3104640921583 1 0 0
102 1 1 0 644.0853270597116 643.6071114822029 642.3126006429909 0 0 0
3101 1 1 0 644.3823875997036 643.8889227115264 644.547414254967 1 0 0
1835 1 1 0 658.9368393778778 641.8673512730344 660.9098037303694 0 1 0
1677 1 1 0 655.650055641637 642.5093930759383 657.0954315049166 0 1 0
2675 1 1 0 642.7269879327935 641.9843208951162 644.8823505548182 1 0 0
3209 1 1 0 649.5320745212023 658.7910831403598 672.9010116884965 1 0 0
3118 1 1 0 650.7974618695283 659.2401628678635 673.4548427132479 1 0 0
452 1 1 0 668.5081566068903 645.2317635551176 660.9144011826917 0 0 0
522 1 1 0 663.2235586511747 646.5093409068007 678.4288232022203 0 0 0
5127 1 1 0 648.8824311167632 654.2889670102196 674.5211663028008 1 1 0
471 1 1 0 652.7964503816605 666.9855855764503 660.4183406789645 0 0 0
2747 1 1 0 679.14518105315 652.6560522884532 675.7811296584352 0 0 0
411 1 1 0 645.5185769535535 643.4839603339879 642.1757212746643 0 0 0
496 1 1 0 646.8426813210554 668.3049511502915 675.6848271459826 0 0 0
1203 1 1 0 644.9360419964115 667.1198539269496 676.53994954116 0 0 0
3389 1 1 0 646.8284832525844 664.2398166986361 673.435265246218 1 0 0
106 1 1 0 665.9350700993292 643.9341219447017 664.2714181551252 0 0 0
3778 1 1 0 661.8364548564107 642.4039711186709 667.9661384143803 1 1 0
417 1 1 0 650.4274004900499 672.6510416458145 670.012696779287 0 0 0
364 1 1 0 664.8604377746301 644.8322865413592 663.7018885553828 0 0 0
419 1 1 0 646.3333460161899 670.5624137664837 674.7911667104263 0 0 0
5190 1 1 0 654.5220848579661 653.5759490755886 673.8659354729699 1 1 0
421 1 1 0 669.2657883028378 648.795808105881 666.6745440495708 0 0 0
1682 1 1 0 657.6563119798103 644.7731982987482 659.0059996469422 0 1 0
2539 1 1 0 676.630558477495 654.9975581177798 673.3105128247141 0 0 0
424 1 1 0 663.7882710627646 646.3459005946993 662.0872667397591 0 0 0