LAMMPS data file via write_data, version 2 Aug 2023, timestep = 50000, units = metal

4560 atoms
1 atom types

644.2769169831658 719.9030830168342 xlo xhi
644.1088787496215 720.7801212503866 ylo yhi
643.7861253990721 721.1028746009359 zlo zhi

Masses

1 12.0107

Atoms # full

2916 1 1 0 646.0031594419348 651.3381729871991 681.989320037451 1 0 0
621 1 1 0 649.662528329428 659.1408289612118 682.3159636672127 0 0 0
3 1 1 0 675.5133682870274 646.036575658472 671.9117823845035 0 0 0
4 1 1 0 670.6374261776299 644.7213706851898 672.2218313741123 0 0 0
991 1 1 0 650.2998614232207 653.4708294866696 647.4375798832626 0 0 1
3869 1 1 0 648.7297794805396 678.1888752308922 680.2013350491931 1 0 0
4064 1 1 0 648.4035029238576 678.5852831067506 678.856023604299 1 0 0
3666 1 1 0 647.6281650932539 677.689681862016 680.9166297765249 1 0 0
9 1 1 0 675.2970002911683 654.1274270762971 649.6449828892104 0 0 0
10 1 1 0 675.4559310680883 655.6421673861357 649.7058445903672 0 0 0
11 1 1 0 676.7117915187456 654.8742858242738 651.689804124217 0 0 0
12 1 1 0 676.1304055222516 655.9909025495064 650.9521931441939 0 0 0
13 1 1 0 677.1614173559863 655.130471170514 652.9928955123553 0 0 0
14 1 1 0 677.7772349655569 656.4154875773357 653.1332131989878 0 0 0
15 1 1 0 678.1794686331922 654.5878348536344 655.0901131682714 0 0 0
16 1 1 0 678.7591466774055 656.5924027200201 654.0409107129585 0 0 0
17 1 1 0 679.4301185219915 655.3206034129349 654.5727962152157 0 0 0
18 1 1 0 680.6205644865357 655.9703440916742 655.391488577745 0 0 0
1183 1 1 0 648.0849996922544 657.6807046993716 681.3101005365049 0 0 0
288 1 1 0 681.991401424747 667.4029068887186 667.9151177559772 0 0 0
21 1 1 0 676.0646500414418 656.0382666459165 648.4836310692241 0 0 0
22 1 1 0 677.2477897760083 656.8312314745064 648.6556132823534 0 0 0
23 1 1 0 676.8083676528447 657.2471566246047 651.0391765474814 0 0 0
24 1 1 0 677.2907246822165 657.7335956195824 649.788604800104 0 0 0
25 1 1 0 677.6126164585515 657.4699367854449 652.1680695199788 0 0 0
26 1 1 0 678.5648520869446 658.5371994403463 652.2555502849606 0 0 0
27 1 1 0 679.6316091241977 657.676930659338 654.1787586812734 0 0 0
28 1 1 0 679.5390678752705 658.7340143197812 653.2727298753506 0 0 0
29 1 1 0 680.9579811135462 657.2357587858484 654.7061215184033 0 0 0
3585 1 1 0 651.5429296393547 681.4390021225438 677.3702544974506 1 0 0
169 1 1 0 681.8137829523474 657.3486339731189 649.421540692409 0 0 0
1156 1 1 0 659.1906476285702 676.4967474794096 643.8964216850925 0 0 1
1215 1 1 0 658.9323626393456 676.9494965292022 647.8783074462758 0 0 1
1084 1 1 0 655.2415781391926 659.8137452643348 645.3868036601291 0 0 1
35 1 1 0 678.3631662597594 658.6574212783947 649.8105935653531 0 0 0
725 1 1 0 660.6701670205462 677.5376861936028 646.0958155607641 0 0 1
37 1 1 0 678.743813889921 659.3167415989116 651.0930001503071 0 0 0
96 1 1 0 680.5982450207883 655.3200317266326 649.9954037150832 0 0 0
1225 1 1 0 655.697929076734 656.0070161897467 649.7372714983823 0 0 1
2475 1 1 0 645.8996046827865 644.4669338422501 648.8960557272968 1 0 0
643 1 1 0 653.2243432048282 653.0193043506619 648.2343204691468 0 0 1
1112 1 1 0 660.4510197293461 663.1320693349804 649.2593641598187 0 0 1
3770 1 1 0 651.2191062619073 678.6232769835399 681.0220744619894 1 0 0
1194 1 1 0 659.4356053316014 677.9852690444845 646.8141019415624 0 0 1
1092 1 1 0 656.1880984521716 660.9154513334747 647.4619815649252 0 0 1
46 1 1 0 658.8329690165895 677.9554160913368 650.2740280830131 0 0 0
653 1 1 0 660.9246659883006 681.9041509927927 645.6380820205953 0 0 1
48 1 1 0 666.6958982607965 678.0690436709674 664.5808932731751 0 0 0
49 1 1 0 677.9108891578196 648.5527774951556 670.7018084110238 0 0 0
130 1 1 0 646.5882378415821 673.2431068442224 650.9148132094844 0 0 0
51 1 1 0 675.4070580313793 666.3502248749045 676.208745903433 0 0 0
52 1 1 0 652.5205521142809 645.4652153310863 674.2318819420931 0 0 0
816 1 1 0 676.6865112008563 668.4853677564888 682.1211126559574 0 0 0
1129 1 1 0 658.4360754891563 653.0976068122666 646.6876360930256 0 0 1
55 1 1 0 670.6231468363457 646.0116004983159 671.6346175270567 0 0 0
56 1 1 0 677.3543595619972 654.1581384034344 653.9709824970789 0 0 0
57 1 1 0 652.2985017162174 665.5835823190787 655.8500866022864 0 0 0
58 1 1 0 668.2653112619907 644.6853963457404 671.7754984277736 0 0 0
1063 1 1 0 654.6883372120183 656.9708871713984 646.5946165906471 0 0 1
60 1 1 0 678.5540353896807 654.8099926581352 648.6884200622972 0 0 0
1075 1 1 0 656.14679691986 659.1767120929978 646.3450964903308 0 0 1
133 1 1 0 659.1827669519074 681.5465853109206 667.012724081797 0 0 0
143 1 1 0 661.128699338386 682.0991115536445 664.051663463716 0 0 0
64 1 1 0 656.3915832105404 645.2720062777627 673.820976539306 0 0 0
65 1 1 0 655.0191488759833 645.0524594918365 673.8525360406251 0 0 0
168 1 1 0 670.2242150233662 652.4703263922584 645.7418164804864 0 0 0
239 1 1 0 648.8202324593726 645.7646941562188 674.4964233158935 0 0 0
496 1 1 0 678.129187625802 667.0531480772037 676.827540659075 0 0 0
909 1 1 0 662.4107153623993 669.7200531822763 647.0242237801356 0 0 1
1014 1 1 0 651.2627364576302 654.26453042613 648.1430684142003 0 0 1
39 1 1 0 680.7595885528153 659.4788308727154 652.9591603965413 0 0 0
2334 1 1 0 645.8023693096661 644.3183975438751 651.3177045022901 1 0 0
579 1 1 0 662.5131924516878 651.9330022436288 645.3349365700274 0 0 0
1206 1 1 0 648.2395045169103 652.4498040111221 681.7040506821527 0 0 0
75 1 1 0 659.3829710558581 679.285163980682 650.2053867319381 0 0 0
1139 1 1 0 659.7175629516526 654.9398209282712 645.8924836507483 0 0 1
2941 1 1 0 646.165553370315 652.7792090908127 677.5939261867087 1 0 0
245 1 1 0 665.1041797044485 652.1971235577819 645.1988741408265 0 0 0
79 1 1 0 677.8950158980831 644.6255199002659 672.2908959567918 0 0 0
3425 1 1 0 645.221757927741 650.4960714030314 679.5617676626345 1 0 0
1062 1 1 0 653.5651785439592 656.2095184871897 646.6600351565443 0 0 1
3519 1 1 0 645.374343834154 654.119606224252 679.3938706932403 1 0 0
83 1 1 0 677.6563999824175 667.1152871562109 675.5155318779435 0 0 0
494 1 1 0 651.0478233075779 667.7924308510634 654.8664046793176 0 0 0
1173 1 1 0 663.3742547754988 676.4856719078484 644.9030766401193 0 0 1
1076 1 1 0 654.4264062501991 658.0598676124513 647.5096142613813 0 0 1
907 1 1 0 661.2682114093687 670.4702697980618 646.7521368993158 0 0 1
973 1 1 0 654.5788506789901 652.7584794602484 648.0942612764322 0 0 1
1787 1 1 0 645.2001138791858 646.4957647232808 644.0372743196986 0 1 1
90 1 1 0 673.6744451205315 653.409886490677 647.2217052269557 0 0 0
1116 1 1 0 662.2914383718128 663.1989753917795 646.8356231691381 0 0 1
172 1 1 0 659.5576681823717 659.5210887113503 649.9790092388544 0 0 0
93 1 1 0 658.0092093804211 657.0704410592659 649.9115439603407 0 0 0
94 1 1 0 662.2929397114399 681.6406156612918 664.6721686689149 0 0 0
95 1 1 0 679.4472301359059 654.4904512304996 649.7628223688108 0 0 0
1057 1 1 0 653.2450551323377 652.6660827066069 645.9162730469462 0 0 1
3653 1 1 0 645.0136380378864 676.9097181506354 678.5558111601152 1 0 0
98 1 1 0 665.8596999129686 644.568318387342 671.3103335212356 0 0 0
99 1 1 0 669.4926315845833 646.5875193541413 671.1193584560398 0 0 0
2 1 1 0 671.8088574108356 644.1646897424544 672.6540856918833 0 0 0
38 1 1 0 679.8242973208702 660.3385587204798 650.9185440938875 0 0 0
102 1 1 0 679.0263991203658 647.902017448288 671.125493452753 0 0 0
103 1 1 0 667.9463668378485 678.7299797499581 667.6297756608985 0 0 0
104 1 1 0 680.5617393511112 654.6444963945668 653.6624368780609 0 0 0
3786 1 1 0 649.3092139094074 680.2875014227023 681.4312787350599 1 0 0
106 1 1 0 678.8377020507116 652.1286345929683 653.9377242854536 0 0 0
107 1 1 0 679.2917397916655 652.2294575523944 655.2933390419038 0 0 0
108 1 1 0 677.9798646689217 653.9268435992393 656.3157710097089 0 0 0
109 1 1 0 678.2391852287561 652.5272269987512 656.2595043241696 0 0 0
110 1 1 0 678.1370615025144 654.4871582779384 657.6206231892481 0 0 0
111 1 1 0 677.8268017903736 653.6841841404425 658.703066555017 0 0 0
112 1 1 0 681.4001187604201 653.665186946526 655.6959198406355 0 0 0
113 1 1 0 681.0638882705083 654.8713464879595 656.3576062600885 0 0 0
114 1 1 0 680.5979022103427 652.4922396501214 655.9957270344502 0 0 0
115 1 1 0 680.5211909085459 652.2878386497732 657.4281448462862 0 0 0
116 1 1 0 678.2211356056873 651.7554068009763 657.4482369443358 0 0 0
117 1 1 0 679.556768428632 651.3292795616279 657.8268699047981 0 0 0
118 1 1 0 677.4146979301053 652.2678145287568 658.5124189597684 0 0 0
119 1 1 0 677.2529039697855 651.6020003414552 659.7937882822774 0 0 0
120 1 1 0 680.5567882617729 654.691380855738 657.6675913919802 0 0 0
121 1 1 0 679.2932795021331 655.2814688285442 657.824882315652 0 0 0
122 1 1 0 680.666051877971 653.4409959789207 658.3076099115063 0 0 0
123 1 1 0 680.0771413987648 653.2335099590607 659.6155800946151 0 0 0
124 1 1 0 679.6851354657648 650.8285833004632 659.1869476118162 0 0 0
125 1 1 0 680.2487891584015 651.9263240700251 660.2094168072658 0 0 0
126 1 1 0 678.4946683273417 650.9566072972912 660.2786519010605 0 0 0
127 1 1 0 679.3220808093142 651.6514037795059 661.4233283003514 0 0 0
1072 1 1 0 655.8373336734899 657.9538850866769 644.0059737442155 0 0 1
3598 1 1 0 646.2881457575593 677.4225395183354 678.8692644224664 1 0 0
582 1 1 0 662.449173782815 661.8359560781012 649.5085917648198 0 0 0
564 1 1 0 664.7082836158878 682.1477602699629 666.5125093312972 0 0 0
1154 1 1 0 661.4549723501339 678.0880250149216 649.2445659639272 0 0 1
1143 1 1 0 661.9868411559471 655.7183230340463 645.5930054373093 0 0 1
134 1 1 0 672.6437735795942 652.8993442763787 646.5439412330791 0 0 0
1108 1 1 0 661.8136741083766 661.8361762188342 646.4634507136467 0 0 1
1113 1 1 0 661.1321152970424 675.7343766238856 648.4873096180124 0 0 1
911 1 1 0 660.6595343804333 672.3133603342658 645.2311510443885 0 0 1
138 1 1 0 663.1497834375435 680.0848959722127 667.3822542033985 0 0 0
139 1 1 0 666.2365389015109 680.3913897525449 665.0048438403135 0 0 0
656 1 1 0 660.5971555657715 679.1867890831937 649.4579692476503 0 0 1
141 1 1 0 657.1350783735983 660.5767324109808 659.3397725553809 0 0 0
142 1 1 0 656.1937944707179 661.043517642825 658.5356881034287 0 0 0
1224 1 1 0 645.8584473535566 648.1520577711227 676.3125653639452 0 0 0
144 1 1 0 678.2995372409067 652.9217439635928 663.4297440365334 0 0 0
145 1 1 0 678.7593876041875 652.7139799982255 662.1415613105919 0 0 0
146 1 1 0 676.9742634382118 653.2738436632776 663.7438037234235 0 0 0
147 1 1 0 676.1356191332802 653.7265884462288 662.573572580643 0 0 0
148 1 1 0 678.1385636266274 653.592269378738 661.1988141731067 0 0 0
149 1 1 0 678.7347448410632 653.7794635306898 659.8245445168598 0 0 0
150 1 1 0 676.7075986280737 653.426070365911 661.2899756322787 0 0 0
151 1 1 0 676.3337101356411 652.2676705095662 660.6162466217277 0 0 0
152 1 1 0 677.3801058851222 653.8769307594641 650.896137838308 0 0 0
153 1 1 0 675.1736501203753 652.8147547639768 667.1017073523282 0 0 0
154 1 1 0 673.918103336304 653.3869560537654 666.7330431088267 0 0 0
155 1 1 0 676.2128129687 653.0473347598012 666.2311344446919 0 0 0
156 1 1 0 676.0733862366047 653.2054843582382 664.8400637983059 0 0 0
157 1 1 0 673.765728644885 654.000679932847 665.440034081824 0 0 0
158 1 1 0 672.7083141335895 654.9208458793361 665.2553441376232 0 0 0
159 1 1 0 674.7846568220665 653.7385002376067 664.4951959304407 0 0 0
160 1 1 0 674.8602817182983 654.1380190171693 663.1615065366736 0 0 0
161 1 1 0 657.8879460763939 659.9533545604714 660.2140371954271 0 0 0
162 1 1 0 658.9385707067528 659.3951913873597 660.8104316450987 0 0 0
999 1 1 0 650.1859182287809 655.4873172511935 643.8509193926336 0 0 1
1134 1 1 0 657.0936982558021 651.4972978496503 645.4892447532355 0 0 1
1763 1 1 0 644.8117065285895 649.0127758610871 644.1693831010299 0 1 1
1155 1 1 0 646.7730202889662 649.5681542553742 678.1264044944314 0 0 0
167 1 1 0 677.392175834567 654.0991255128512 648.406663373667 0 0 0
616 1 1 0 662.514691170823 679.802021470961 647.7090726571461 0 0 1
636 1 1 0 658.3787029660009 680.2681043053085 645.3064985663692 0 0 1
36 1 1 0 679.4164371653503 658.3471709995814 648.8594550564204 0 0 0
171 1 1 0 677.5131165854168 652.7609702935448 653.766819059273 0 0 0
3870 1 1 0 653.9773651087406 681.4889084381041 679.4419448591993 1 0 0
173 1 1 0 666.4795639815999 680.4958622927222 666.3806587079399 0 0 0
174 1 1 0 664.3791987438184 656.9416352162327 665.4207321007437 0 0 0
175 1 1 0 667.3975670908509 650.0477234266416 668.4277904505452 0 0 0
176 1 1 0 667.488789573135 651.1453360674591 667.5925854607906 0 0 0
177 1 1 0 669.6246988868206 651.5344752290507 668.5274568435938 0 0 0
178 1 1 0 668.6308060232377 651.9315195555627 667.6586254226617 0 0 0
179 1 1 0 666.4797299844547 651.6666794789893 666.8286299760307 0 0 0
180 1 1 0 666.5421901058563 652.9075734993152 666.0987720337861 0 0 0
181 1 1 0 668.8923687439835 653.0681734435801 666.8635969988253 0 0 0
182 1 1 0 667.7287342205385 653.6696152191998 666.2705267228 0 0 0
183 1 1 0 670.2532766381223 654.7679106897866 665.8593971824546 0 0 0
184 1 1 0 664.5020443303711 652.5849172988228 664.9009472076705 0 0 0
185 1 1 0 665.4698290769871 653.4650889480757 665.3275627066787 0 0 0
186 1 1 0 665.4436704025377 654.8579867530731 664.9720984748458 0 0 0
187 1 1 0 667.8562725443152 654.9073123308248 665.6321134167964 0 0 0
188 1 1 0 666.709930914041 655.3542564912775 664.9273990345207 0 0 0
189 1 1 0 669.0963625113809 655.5576665423046 665.7663776238794 0 0 0
190 1 1 0 671.4161133339871 655.036918625532 665.179678587716 0 0 0
191 1 1 0 663.2175244832875 655.3943233363293 663.9175488529323 0 0 0
192 1 1 0 664.3145438212747 655.7446843030492 664.7766076325149 0 0 0
193 1 1 0 663.0735247588095 654.0328709981061 663.5719270522546 0 0 0
194 1 1 0 666.2230708269524 649.2972059231535 668.3673751477014 0 0 0
195 1 1 0 665.3463484220482 649.7027627946504 667.3360813031817 0 0 0
196 1 1 0 665.3725605597599 650.8368758118542 666.5265864816602 0 0 0
197 1 1 0 664.4799423559762 651.3949668183106 665.639357467329 0 0 0
198 1 1 0 663.782557585545 652.9112760486554 663.717124293749 0 0 0
199 1 1 0 668.4357781940187 649.6061256716915 669.223301437116 0 0 0
200 1 1 0 669.5693719214795 650.3755958257302 669.2692287947158 0 0 0
201 1 1 0 668.4325433352908 648.3473490210531 669.7390913972889 0 0 0
202 1 1 0 674.2551444860441 651.6643424135749 668.9390082485468 0 0 0
203 1 1 0 673.0537162473764 652.2858887258586 668.6320511737772 0 0 0
204 1 1 0 674.2939382860379 650.5353060244415 669.7434268803745 0 0 0
205 1 1 0 673.1191860410756 649.9055494871153 670.1049517783424 0 0 0
206 1 1 0 675.3601317979495 652.0303670862068 668.245125128832 0 0 0
207 1 1 0 670.7371689215361 649.8648656832183 669.9448892162452 0 0 0
208 1 1 0 670.7952700179263 652.2458403452434 668.4990829806859 0 0 0
209 1 1 0 671.2454843347202 653.0828549276793 667.4345938022749 0 0 0
210 1 1 0 670.1830990212895 653.7023717717062 666.784393372764 0 0 0
211 1 1 0 672.7299568154091 653.1175003118274 667.5394404375105 0 0 0
212 1 1 0 671.8934275474654 651.7565547918442 669.1940821233426 0 0 0
213 1 1 0 671.9147556747469 650.5635066984147 669.8687967707599 0 0 0
214 1 1 0 676.5798201444568 651.3533980979411 668.5519667268399 0 0 0
215 1 1 0 670.6875926254611 648.6499321776555 670.5470147844653 0 0 0
3539 1 1 0 645.9333222770312 650.5334570507579 676.1526625032604 1 0 0
1035 1 1 0 644.8304210311703 656.5792579463912 649.4569445013611 0 0 1
218 1 1 0 660.8187649671804 657.9933079355752 662.0101810008136 0 0 0
219 1 1 0 659.9010751951447 658.6595721239262 661.350032229721 0 0 0
220 1 1 0 661.5953720824342 657.1027864347819 662.639515200822 0 0 0
221 1 1 0 662.535184092671 656.3338574960299 663.1727641035635 0 0 0
470 1 1 0 660.8557907925001 680.1521103098013 660.8851782611646 0 0 0
241 1 1 0 647.6040248643388 646.5434953637758 674.6589510416311 0 0 0
1051 1 1 0 661.4315148759431 675.8871216278013 644.7776197645147 0 0 1
225 1 1 0 679.539779389837 668.6125922788308 668.0879113342861 0 0 0
226 1 1 0 678.3676181604158 669.1642650981429 668.7626975508975 0 0 0
227 1 1 0 679.8390117183823 669.3341572597972 666.9545218567617 0 0 0
228 1 1 0 679.0681650174879 670.6111098877134 666.6950391917209 0 0 0
229 1 1 0 676.3074719350091 654.8757536496935 647.5841763380091 0 0 0
557 1 1 0 677.2175482101679 666.5742189827035 677.8247732105499 0 0 0
638 1 1 0 662.1799272263767 676.9425481003279 643.9843062700726 0 0 1
232 1 1 0 664.9323629318958 679.0107647730684 668.592991010015 0 0 0
233 1 1 0 666.1087258195496 679.0652250548258 669.3990021598534 0 0 0
897 1 1 0 652.5121262140525 654.1483228177375 648.7893827499256 0 0 1
962 1 1 0 647.8408736198503 655.4689809944026 679.6761098925072 0 0 0
236 1 1 0 651.1999679644126 645.2174342653356 674.7790987733225 0 0 0
237 1 1 0 650.1400959244717 646.0217885281276 674.0252360731491 0 0 0
903 1 1 0 663.1506176929742 666.663296354456 649.0261880368902 0 0 1
586 1 1 0 661.4049612806214 658.324686372263 648.921303122208 0 0 0
240 1 1 0 650.9891981741978 646.5303091443764 672.870658942611 0 0 0
84 1 1 0 680.783619225142 656.4747676846813 649.2056060535991 0 0 0
1146 1 1 0 646.9985897756909 650.5664447057052 677.1341628829999 0 0 0
243 1 1 0 674.5251497059118 668.7399061598023 671.8134535471437 0 0 0
2499 1 1 0 646.6032793923773 644.1430602980851 650.1113245204191 1 0 0
892 1 1 0 664.0213486778399 672.9390311787183 648.5854930904981 0 0 1
1205 1 1 0 650.2371679505646 656.8845867827266 682.0018006939392 0 0 0
247 1 1 0 667.2111240512563 647.6321103427784 669.7454694620636 0 0 0
248 1 1 0 666.0924660585778 648.1863056727647 669.1756518939528 0 0 0
249 1 1 0 664.8441503511057 647.6476808795753 669.5506055239223 0 0 0
250 1 1 0 662.4237213438057 646.8299138465935 671.1583289515626 0 0 0
251 1 1 0 661.3783146186238 646.4643162833714 671.9798692889424 0 0 0
252 1 1 0 664.7165232716734 646.5024168715009 670.3547953750273 0 0 0
253 1 1 0 657.5731858483391 644.7081077642924 673.2154172640037 0 0 0
254 1 1 0 659.9632666578706 644.5882782249328 672.7530376889077 0 0 0
255 1 1 0 661.1275289279598 645.085838216684 672.2229160396122 0 0 0
256 1 1 0 663.5535022683605 646.0361825083862 670.9092647374015 0 0 0
257 1 1 0 658.7915332304464 645.3137051087784 673.0968086393 0 0 0
47 1 1 0 681.9043443980704 662.1366020262162 650.5694653087355 0 0 0
1212 1 1 0 648.4740401347506 653.152086407701 679.3269144580483 0 0 0
1138 1 1 0 660.5908786472157 656.5085944202111 647.4664544249486 0 0 1
1131 1 1 0 653.9490011003695 650.9943252901096 644.7733150898363 0 0 1
1027 1 1 0 644.3360790838875 656.0148516874646 646.0633212664516 0 0 1
1056 1 1 0 659.9400502159564 651.6515099382659 644.7224977602909 0 0 1
898 1 1 0 661.5834885044078 671.5489786994335 649.0243262074266 0 0 1
899 1 1 0 662.1190810358646 670.5186097370108 650.0238059673853 0 0 1
3260 1 1 0 645.9690592114154 648.3783290903237 677.7833124358242 1 0 0
1182 1 1 0 659.0662576763319 674.0327276328611 645.5063763642745 0 0 1
1310 1 1 0 663.658101996615 681.7798105488364 662.812208680095 0 0 0
269 1 1 0 679.6092478847152 652.3195824673003 652.7130401422805 0 0 0
270 1 1 0 653.6917264188304 663.4999339891541 656.8255737539794 0 0 0
271 1 1 0 652.9326466408772 664.4759032064502 656.2362237444902 0 0 0
272 1 1 0 654.5250088936878 662.599898323792 657.321500981962 0 0 0
273 1 1 0 655.2110033399582 661.5979695223559 657.8209108959592 0 0 0
967 1 1 0 645.6051664726425 653.6710454871376 648.3175476443719 0 0 1
3514 1 1 0 646.8688179020738 656.9798068397778 681.2387552706557 1 0 0
3575 1 1 0 646.0573442699855 679.9274240926403 681.5982922551677 1 0 0
1185 1 1 0 653.4825093961417 655.0550965824083 645.9797841767908 0 0 1
278 1 1 0 681.2848587055016 670.8873333715072 666.0568215661262 0 0 0
2471 1 1 0 645.1186393184519 645.6074544613182 648.6477866566656 1 0 0
1217 1 1 0 660.5195239658681 679.9458143671567 648.2471588344611 0 0 1
3957 1 1 0 652.3911654366957 679.6379022178501 679.0292841467567 1 0 0
659 1 1 0 676.9402926229484 668.6638234871244 680.7288366887675 0 0 0
234 1 1 0 648.5775058194249 644.4079795545409 674.810460854007 0 0 0
3626 1 1 0 651.7759703275577 678.5627296488981 679.7266140370612 1 0 0
285 1 1 0 681.4029162147713 669.4104882803992 666.5748662059405 0 0 0
910 1 1 0 663.6404470694742 667.7780768845822 647.9291622379983 0 0 1
963 1 1 0 644.9773727672442 655.1816244582593 651.412553209818 0 0 1
920 1 1 0 662.7029555373513 674.5368820385539 647.2819771057759 0 0 1
4075 1 1 0 653.0290037426493 680.5836876021662 679.9455757402253 1 0 0
1087 1 1 0 653.0472655132411 656.5529572374955 648.8221107388292 0 0 1
3554 1 1 0 648.3865667376031 679.9903392542207 678.6173190030684 1 0 0
669 1 1 0 655.0937739353781 651.9529405044481 646.9835854611923 0 0 1
293 1 1 0 681.818011779048 669.1652790003698 668.9154306564379 0 0 0
294 1 1 0 680.7658604058099 667.9935629925089 668.7103497183099 0 0 0
295 1 1 0 680.4985210359195 667.3605107369592 670.0378841298578 0 0 0
658 1 1 0 656.7980677437542 653.8664906759112 648.2504717194018 0 0 1
297 1 1 0 681.4992727048823 666.6416095439014 670.7228376523749 0 0 0
2506 1 1 0 644.9627467388672 644.1908206022619 675.8040657625393 1 0 0
299 1 1 0 663.3117050363627 680.1538794000509 662.621927624649 0 0 0
300 1 1 0 680.0198597794222 668.3814865280731 670.8583445798639 0 0 0
301 1 1 0 681.2856751421031 666.7568041382824 672.1954663211839 0 0 0
302 1 1 0 679.9618621160764 666.9606149183301 672.7249727760092 0 0 0
303 1 1 0 663.0298806209145 679.3166981579916 666.2538612302292 0 0 0
533 1 1 0 681.7559554539888 658.6061347814839 648.7976292005958 0 0 0
305 1 1 0 664.5062839529473 680.175062820481 667.8692298892024 0 0 0
935 1 1 0 655.731536784081 675.9945690631791 681.881796761244 0 0 0
1210 1 1 0 658.726387676807 655.1910026389787 648.0261418478394 0 0 1
634 1 1 0 654.0600021504555 657.4568533820699 648.8650157301464 0 0 1
1098 1 1 0 657.5157621696832 661.0222623534785 646.8969597026637 0 0 1
3601 1 1 0 649.7192022416702 678.8065531619493 681.1967130462098 1 0 0
1065 1 1 0 661.6288001592548 657.3227975069796 647.9316049585598 0 0 1
312 1 1 0 681.8250864728402 669.7192237695422 670.1505122301348 0 0 0
313 1 1 0 679.3828632611437 668.046933108434 672.0529670852726 0 0 0
314 1 1 0 679.694342879955 667.0200046293025 674.1128435461018 0 0 0
315 1 1 0 678.4422436591641 667.5499869093572 674.4706349042896 0 0 0
1137 1 1 0 659.0245964667909 654.3172771024715 646.9014050232364 0 0 1
3563 1 1 0 652.3585101761798 680.6766798038634 681.2269759722737 1 0 0
1189 1 1 0 646.1631275428919 654.6838947559179 649.122437892066 0 0 1
2911 1 1 0 644.8260611661203 653.4254492672435 681.9750680026073 1 0 0
3526 1 1 0 644.4878697466361 651.7802009933382 678.9484365143765 1 0 0
321 1 1 0 682.0340345940108 672.6994974257456 668.0257174567305 0 0 0
322 1 1 0 682.037000496815 671.8889431224471 670.3290320742235 0 0 0
323 1 1 0 680.5540837344611 671.7829120462999 670.3625683741267 0 0 0
324 1 1 0 680.662653976263 669.6229429920921 670.852355699829 0 0 0
325 1 1 0 679.9272431391175 670.7730612312374 671.2537792214099 0 0 0
326 1 1 0 680.6914783477894 672.2021053794109 667.9354126618039 0 0 0
327 1 1 0 680.2536890040965 671.5499093452536 666.7221101679296 0 0 0
328 1 1 0 679.9527515719054 672.0965097312428 669.1410643682849 0 0 0
329 1 1 0 678.2747728573104 670.405846010892 669.573364667751 0 0 0
330 1 1 0 678.6376060423028 670.3124569086158 671.8657419744659 0 0 0
331 1 1 0 677.6716774700297 670.2293797628771 670.8782010422566 0 0 0
332 1 1 0 678.6491349602305 669.0791569308989 672.6408817590138 0 0 0
333 1 1 0 677.8062324155014 668.5641721158833 673.6336945272343 0 0 0
1222 1 1 0 654.804307171309 654.9571852559857 649.3208832653677 0 0 1
676 1 1 0 675.1453247089531 670.3071759070652 680.8096084770365 0 0 0
336 1 1 0 680.7648715836408 667.2394303337735 674.952525658114 0 0 0
588 1 1 0 656.0123396514956 658.3474443181825 649.9062268212634 0 0 0
338 1 1 0 662.5674069026769 671.3818083730973 676.9194601934247 0 0 0
339 1 1 0 661.8945491004863 671.9155096245129 675.8578802630038 0 0 0
340 1 1 0 663.5690277926417 670.4782257647672 676.6588684514334 0 0 0
341 1 1 0 664.2973180258628 670.5732794510722 675.4256011034876 0 0 0
342 1 1 0 665.8205924089559 668.6966862080852 675.9488078453854 0 0 0
343 1 1 0 665.4387805457812 669.7634894573995 675.1442149577609 0 0 0
344 1 1 0 666.9032262779034 667.8791325829109 675.5885462711049 0 0 0
345 1 1 0 667.9146114507575 668.3830909379433 674.734491856053 0 0 0
346 1 1 0 669.6887854328038 667.1575578808275 675.806149353591 0 0 0
347 1 1 0 669.2038751830577 667.909375402533 674.7200095271967 0 0 0
348 1 1 0 662.7168773867854 672.300824609682 674.7366045981471 0 0 0
349 1 1 0 662.5803183182404 673.506946099531 673.9624149128356 0 0 0
350 1 1 0 663.8046559615537 671.5004130561875 674.4359354628225 0 0 0
351 1 1 0 664.6812440508054 671.774726258613 673.3530999225156 0 0 0
352 1 1 0 666.2355539019046 670.0064333620224 673.9273630496747 0 0 0
353 1 1 0 665.854587345286 671.0638296953258 673.1071649662397 0 0 0
354 1 1 0 667.4251540230789 669.2498701600973 673.7406921381985 0 0 0
355 1 1 0 668.3044190981711 669.6718102867261 672.7718187640294 0 0 0
356 1 1 0 669.638835055908 669.1686036761533 672.7201828154517 0 0 0
357 1 1 0 663.2333627255081 673.6678315175043 672.6924325898692 0 0 0
358 1 1 0 662.832262189389 674.4994272309265 671.6345182728315 0 0 0
359 1 1 0 664.3667825984162 672.8589631406489 672.4538780255263 0 0 0
360 1 1 0 665.2087361432413 673.1797076811107 671.4355233709747 0 0 0
361 1 1 0 666.6445730089222 671.3219265772357 671.9617489711726 0 0 0
362 1 1 0 666.3574935239718 672.4756483383504 671.1345869668526 0 0 0
363 1 1 0 667.9375545953794 670.7229582140919 671.8986162480747 0 0 0
364 1 1 0 668.814014223731 671.086145199952 670.7982606394512 0 0 0
365 1 1 0 663.7373273280876 675.0289964111859 670.7384088650776 0 0 0
366 1 1 0 663.5910369071155 676.1551544110563 669.9280222096434 0 0 0
367 1 1 0 664.8787481595142 674.2222335977928 670.5179754011626 0 0 0
368 1 1 0 665.6325021828286 674.4492235107108 669.3354057804946 0 0 0
369 1 1 0 667.1812028722277 672.7335194006246 670.0147052842683 0 0 0
370 1 1 0 666.85810572795 673.7840150002264 669.1377034853174 0 0 0
371 1 1 0 668.3929363195261 672.03710496001 669.8787710386514 0 0 0
372 1 1 0 664.3567969565175 676.4785796872176 668.8213382615456 0 0 0
373 1 1 0 664.4970349389068 677.7075476396863 668.1412342833453 0 0 0
374 1 1 0 665.2947278091336 675.5002140631352 668.4290732422521 0 0 0
375 1 1 0 666.1879806759483 675.7703788277616 667.3913650276484 0 0 0
376 1 1 0 667.8216757618061 674.3016199794772 668.2917585761253 0 0 0
377 1 1 0 667.5652800335967 675.3963239097877 667.4979107727744 0 0 0
378 1 1 0 664.7048438295517 677.5489236082943 666.706710996661 0 0 0
675 1 1 0 659.3546683834643 677.0626611068268 649.2725436862237 0 0 1
380 1 1 0 665.9030192971893 676.7945143685804 666.4749632424454 0 0 0
1199 1 1 0 661.9172743018887 682.3325762752128 648.8222038465939 0 0 1
382 1 1 0 673.0870530168289 670.7522924535864 668.6390725810026 0 0 0
383 1 1 0 672.1760578386301 670.2806722747523 669.5614695099965 0 0 0
384 1 1 0 672.8875691079963 671.9591485075925 667.9631951327133 0 0 0
385 1 1 0 671.6241095670978 672.6069374441902 668.1167636813562 0 0 0
386 1 1 0 671.4184269657225 673.9524511690478 667.6141219897166 0 0 0
387 1 1 0 669.894290907749 675.8371946947648 667.2731163272365 0 0 0
1208 1 1 0 659.5472700017874 656.2868741473387 648.3073793451047 0 0 1
389 1 1 0 668.626528224733 676.3564557234457 667.144224787208 0 0 0
390 1 1 0 675.3024738869425 672.2025136176771 667.5326359717221 0 0 0
391 1 1 0 675.4205101913251 670.7731542920392 667.7127633382589 0 0 0
392 1 1 0 670.1449409319629 674.5084364575075 667.7442349754945 0 0 0
393 1 1 0 670.9295140778746 670.9029460332459 669.6858686471134 0 0 0
394 1 1 0 669.3550613453228 672.6417115471489 669.0273126205457 0 0 0
395 1 1 0 670.5747369386445 672.0023672260687 668.8758485996184 0 0 0
396 1 1 0 673.9342070745428 668.9321681542057 670.5621531286836 0 0 0
397 1 1 0 673.971912394529 672.7450527880454 667.5753513964256 0 0 0
398 1 1 0 669.0827673007444 673.7524562222422 668.2912500983407 0 0 0
399 1 1 0 674.3742843706849 670.1867686654941 668.5205706005872 0 0 0
400 1 1 0 674.7218530639624 669.1455790666197 669.4043972595854 0 0 0
401 1 1 0 672.2055561494186 675.8320574207557 666.4310535934625 0 0 0
402 1 1 0 671.075491778878 676.5156594487171 666.7878680867105 0 0 0
403 1 1 0 676.6334214341133 670.1377861075323 667.4590821657109 0 0 0
404 1 1 0 667.3767465521084 678.8582595759217 668.9770721854844 0 0 0
405 1 1 0 673.8127402561834 674.1429035541527 667.2786881170566 0 0 0
406 1 1 0 676.9641700533738 669.1328476919427 668.3993937943635 0 0 0
407 1 1 0 672.5395898933081 674.6479762979058 667.0568992989937 0 0 0
408 1 1 0 676.0941194092416 668.982389593721 669.5582884791876 0 0 0
409 1 1 0 678.5837088282597 671.7263960836075 669.055477089513 0 0 0
410 1 1 0 677.6989625979506 672.1185741477597 667.9278299408229 0 0 0
411 1 1 0 676.3165407158841 674.3776953729331 667.7002865154057 0 0 0
412 1 1 0 676.5198170241333 672.9695293997178 667.7227169161134 0 0 0
413 1 1 0 675.661819292229 667.7842770806559 674.2338982300915 0 0 0
414 1 1 0 676.4116850857855 668.4439755520547 673.2726907599174 0 0 0
650 1 1 0 660.5660790282413 682.1135949467193 646.9514076166578 0 0 1
416 1 1 0 676.6334625872039 669.2478789812002 670.8372107046097 0 0 0
417 1 1 0 675.9124828343935 668.9202380418615 672.0440065701197 0 0 0
418 1 1 0 675.0291572100848 674.8696985081392 667.4942045366149 0 0 0
419 1 1 0 677.7326125360559 670.975899714179 667.0308324772097 0 0 0
420 1 1 0 671.0311631532816 666.8814432398655 675.8554517435679 0 0 0
421 1 1 0 671.9883873418095 667.3001463046324 674.9119663356138 0 0 0
422 1 1 0 674.053251115504 666.3023457490883 675.9022623221739 0 0 0
423 1 1 0 673.385041583512 667.1257979171024 674.9904567402984 0 0 0
424 1 1 0 670.0842636547309 668.3003079741973 673.7059248341062 0 0 0
425 1 1 0 671.4646946689384 667.9423020559191 673.7522913156972 0 0 0
426 1 1 0 672.2832598309071 668.4519200940591 672.6999766591603 0 0 0