LAMMPS data file via write_data, version 2 Aug 2023, timestep = 50000, units = metal

4560 atoms
1 atom types

649.176302867979 715.0036971320261 xlo xhi
649.3778461794346 715.5111538205575 ylo yhi
649.1257345860928 715.7632654138994 zlo zhi

Masses

1 12.0107

Atoms # full

92 1 1 0 669.7407762204089 675.8687662364541 657.0921860243619 0 0 0
2 1 1 0 678.0386749909983 674.4034192913581 659.141962505305 0 0 0
1633 1 1 0 671.8726265194034 669.9395648635987 662.7656365375641 0 0 0
1336 1 1 0 671.28224928717 681.6450923276956 662.4916496003995 0 0 0
978 1 1 0 662.4816532926584 661.803581354907 652.4978584758261 0 0 1
65 1 1 0 662.4106543393132 680.4682885865631 657.8995471613813 0 0 0
251 1 1 0 674.888972544196 666.5524955361002 660.3714821454821 0 0 0
875 1 1 0 662.5571766706804 665.5444460051096 652.6108046212597 0 0 1
376 1 1 0 679.1914993136317 679.0883478303887 657.8027522923346 0 0 0
979 1 1 0 660.953450744731 664.7847075307876 650.9042188317973 0 0 1
968 1 1 0 678.3515922917748 673.1859570063216 657.0726955267287 0 0 1
69 1 1 0 681.9904295411975 676.002240681299 658.924522242457 0 0 0
911 1 1 0 663.1724390316707 656.3386891640248 651.0469896611434 0 0 1
14 1 1 0 672.9296719284529 674.9724552331395 658.9499082174535 0 0 0
15 1 1 0 671.5767037412692 674.8956536938874 658.4457270035206 0 0 0
16 1 1 0 675.8771105523197 679.4625856272206 660.405954705714 0 0 0
479 1 1 0 675.3869063407809 671.5770246050729 661.0066259369275 0 0 0
997 1 1 0 666.6000743619519 664.7360778792014 650.6293834982009 0 0 1
142 1 1 0 666.9810401529924 680.8720781290334 657.8900560828747 0 0 0
885 1 1 0 677.3139528693036 674.0807104942445 655.1129247781506 0 0 1
986 1 1 0 664.55539289409 662.5368204654849 653.3901057708645 0 0 1
270 1 1 0 669.103730497608 674.9331880258869 656.3280413989697 0 0 0
458 1 1 0 673.8165970516941 668.532440227286 659.4495632430588 0 0 0
480 1 1 0 673.9748617545615 669.8713991441447 659.9585357338487 0 0 0
519 1 1 0 667.9076336359454 671.5332439019434 656.6476055590716 0 0 1
26 1 1 0 679.3803312583067 680.0406385194898 660.056011217395 0 0 0
797 1 1 0 665.3938308018152 668.2089158014833 653.1286713581286 0 0 1
253 1 1 0 682.024824685051 681.0096065725115 664.0664467626139 0 0 0
991 1 1 0 668.2794472009086 665.8917910856894 653.6329497849565 0 0 1
1548 1 1 0 673.6648064781817 670.1841422035967 664.3239521442487 0 0 0
877 1 1 0 671.3492260158189 670.4869632839195 656.5008675763488 0 0 1
801 1 1 0 665.5775757168292 669.4496881437825 653.690624422943 0 0 1
33 1 1 0 679.1529297601976 677.9094222550818 661.0632248085765 0 0 0
34 1 1 0 678.8234171526442 676.8143289865214 660.3479857411286 0 0 0
35 1 1 0 678.452374629253 679.0460565131381 660.5931649133933 0 0 0
36 1 1 0 677.1730242920272 679.0293487430421 660.1121289642017 0 0 0
1508 1 1 0 672.8705251918574 667.386395419591 661.9269107585922 0 0 0
524 1 1 0 670.1766563569627 670.4276786204155 657.2481003977673 0 0 1
1028 1 1 0 675.7283749699781 672.3049698364882 657.1978498948774 0 0 1
1084 1 1 0 667.1696256212155 652.4966773009971 652.6377415861328 0 0 1
41 1 1 0 677.632466162453 676.6502047967475 659.6956660720343 0 0 0
42 1 1 0 677.1575025240538 675.4178941148112 659.4416399492795 0 0 0
43 1 1 0 677.0861533997738 677.9499459926652 658.990854619205 0 0 0
44 1 1 0 675.4894298984973 677.7774121991066 658.7457729865621 0 0 0
942 1 1 0 667.0037934068504 671.4372708510007 654.4456404919601 0 0 1
1009 1 1 0 670.5239551832038 665.0214383660569 650.9471530280233 0 0 1
917 1 1 0 676.1097500535526 674.1843940532244 654.4402377209414 0 0 1
48 1 1 0 675.7756041954456 675.2937710832534 659.1767714400404 0 0 0
49 1 1 0 675.2465295476667 674.1025407439544 658.7406834783128 0 0 0
50 1 1 0 674.9360837031849 676.3941743390214 659.2851364604787 0 0 0
51 1 1 0 673.5351704285205 676.1671172766157 659.5003233964526 0 0 0
52 1 1 0 661.5316249977933 679.9815955622952 660.1550766858087 0 0 0
1317 1 1 0 671.9366533401972 674.7464610225513 661.7566547870686 0 0 0
54 1 1 0 673.8561570122297 673.9734062966929 658.5801843815376 0 0 0
902 1 1 0 665.322445880765 657.008990021823 651.6422630926073 0 0 1
486 1 1 0 677.9501504997676 677.411936600232 656.4881588082276 0 0 0
990 1 1 0 667.1311083047318 665.6365627091872 654.4337655307355 0 0 1
1037 1 1 0 664.7613666315976 666.4902507311093 651.4547712305999 0 0 1
776 1 1 0 656.4755745320437 662.8835357134964 650.2001613739496 0 0 1
22 1 1 0 681.5126690244388 677.3525568994938 660.8813462415047 0 0 0
1052 1 1 0 666.4869391646295 666.8612566251122 654.9634388873804 0 0 1
950 1 1 0 673.6399777292804 669.7014417841909 651.0049867281501 0 0 1
368 1 1 0 670.9276616868111 672.5625539114207 658.3552932146961 0 0 0
102 1 1 0 672.6208839754509 677.7456089276736 656.6525395255314 0 0 0
1006 1 1 0 668.4790602904166 666.3171022087981 650.077485355386 0 0 1
944 1 1 0 669.993126310976 667.486223020403 653.1674697739703 0 0 1
887 1 1 0 665.3712549423047 667.7181633096102 651.8204045988773 0 0 1
1153 1 1 0 672.8731958116332 669.2229424190476 663.61473832519 0 0 0
758 1 1 0 652.7766051114521 664.3175758210992 652.7681656755802 0 0 1
1001 1 1 0 668.7507633094848 663.277757988114 651.4325224182446 0 0 1
1344 1 1 0 670.9202836627941 681.5380957901984 659.8237469565071 0 0 0
1080 1 1 0 665.6639325180398 653.638276240475 651.0697915243294 0 0 1
998 1 1 0 668.4615989719505 665.4334552299609 652.3672608178393 0 0 1
1125 1 1 0 672.9845187917439 671.7285361385773 661.1912916194339 0 0 0
934 1 1 0 672.6165225126199 671.5135062660914 653.3573763571723 0 0 1
1070 1 1 0 673.6332650503612 671.2632892130179 656.3630505204666 0 0 1
1510 1 1 0 673.1456541719922 675.8291357737976 664.0681072805553 0 0 0
412 1 1 0 678.4231466686307 665.3380376524832 660.076736509249 0 0 0
203 1 1 0 679.8466070038774 679.8578961994122 658.7312163268122 0 0 0
116 1 1 0 660.4942049275963 680.3095852929097 659.1775413877668 0 0 0
989 1 1 0 666.6770202233286 663.7880884058022 653.0751062971154 0 0 1
757 1 1 0 676.2006619652224 673.2394514770097 658.1271509640346 0 0 1
988 1 1 0 666.2742766706878 664.6075572957084 654.0979715622541 0 0 1
84 1 1 0 668.8870719886429 675.5254497058098 659.3164140965661 0 0 0
85 1 1 0 669.1560386873452 676.4745343014641 658.3102475507194 0 0 0
86 1 1 0 668.6719467737104 678.7653087732085 659.0901919951357 0 0 0
87 1 1 0 669.0626067998599 680.115066521074 659.069108286514 0 0 0
88 1 1 0 669.4726186886927 677.8398617551826 658.4337236697365 0 0 0
89 1 1 0 670.5201788179514 680.3657184039911 659.1123713998785 0 0 0
941 1 1 0 670.7170002679295 668.7233508392419 655.0222173617475 0 0 1
91 1 1 0 679.4246713306171 674.7072643054154 659.231231282122 0 0 0
1004 1 1 0 667.5593731684137 665.3730585948001 649.6374090403743 0 0 1
23 1 1 0 680.7681156674374 679.5590931418199 662.0820648907786 0 0 0
94 1 1 0 670.7350473920106 678.1674341729347 658.0423653248632 0 0 0
95 1 1 0 671.4592087249057 677.3053500524422 657.309046684206 0 0 0
96 1 1 0 671.33177071933 679.3513162815274 658.5874100329662 0 0 0
97 1 1 0 672.815989921422 679.1919653349482 658.6395439695168 0 0 0
849 1 1 0 681.2977749086788 676.1743081004629 656.6249668382445 0 0 1
300 1 1 0 678.0936624049615 661.5863984225696 662.1279123708752 0 0 0
1031 1 1 0 669.086450244507 666.9178465969045 654.0631898666932 0 0 1
1068 1 1 0 673.9425381507858 674.8539720604974 654.7448868489472 0 0 1
93 1 1 0 671.2160320134449 675.7205742896577 657.2099893312662 0 0 0
278 1 1 0 673.7767770466843 666.5360841359302 661.1817286380464 0 0 0
104 1 1 0 673.4619079683598 678.6200243852421 657.4119780448099 0 0 0
105 1 1 0 674.8877344005725 678.0620754628223 657.3679057495191 0 0 0
857 1 1 0 668.8516135683265 673.0289710108509 654.9332995719878 0 0 1
379 1 1 0 660.1866925678825 681.5644256870162 657.1573353589303 0 0 0
1256 1 1 0 674.4577723232264 672.2954117300878 663.0928524723878 0 0 0
980 1 1 0 663.9251296628429 663.7934198243835 653.7906932291686 0 0 1
498 1 1 0 662.7020022038712 664.1887278941549 653.1334643216305 0 0 1
499 1 1 0 677.5776700427404 673.4493065596591 658.2123037292873 0 0 1
112 1 1 0 668.1659538718342 654.7397253726856 677.9529166305459 0 0 0
1280 1 1 0 675.7099612796719 672.9491981061796 663.3452951363452 0 0 0
383 1 1 0 681.3832177128354 671.927149740478 660.7553938156608 0 0 0
1010 1 1 0 669.7892723201796 663.2985388034551 649.3613740051796 0 0 1
958 1 1 0 674.2024206287489 667.0754736667991 650.6702105825775 0 0 1
545 1 1 0 672.8650085447077 669.6998728050555 654.8475289872363 0 0 1
118 1 1 0 669.2262872878337 674.165997908052 659.0332298703131 0 0 0
853 1 1 0 670.4735896944528 650.9093719228026 674.6700597594794 0 0 0
120 1 1 0 668.2998976280858 673.5033536820177 658.1303145781692 0 0 0
1584 1 1 0 673.6446617029651 671.6049015506541 664.0622080175755 0 0 0
421 1 1 0 678.6720258483962 668.0425338177607 659.6445655523387 0 0 0
846 1 1 0 652.999012767734 665.9011614517195 651.0093044489823 0 0 1
1047 1 1 0 669.5448246283088 668.4996432994628 655.7658055856361 0 0 1
961 1 1 0 672.8079282342053 672.6267201097232 654.1761329360846 0 0 1
417 1 1 0 675.9941273656249 665.7059841290055 660.4278846964943 0 0 0
1550 1 1 0 672.5353715113555 668.0529399670874 659.6674726445608 0 0 0
252 1 1 0 674.9760164724602 667.7223903465306 659.5792759480826 0 0 0
1513 1 1 0 673.0021756711516 678.0327404670289 662.9339696155205 0 0 0
407 1 1 0 679.4869960041682 663.2922328901468 660.9021140291848 0 0 0
131 1 1 0 662.7555058680706 679.9228393029182 659.2311739583046 0 0 0
984 1 1 0 663.7873854890869 661.4674425687041 652.885026387969 0 0 1
895 1 1 0 671.1428466184916 673.9551204288096 655.4706553344488 0 0 1
952 1 1 0 673.9614571460264 670.3599682917442 655.396567683184 0 0 1
510 1 1 0 675.7906220491991 676.3454839308637 655.592754795788 0 0 1
1334 1 1 0 672.0795391197885 680.5211742859134 662.6810758901527 0 0 0
410 1 1 0 675.9603972418305 664.3704166459838 660.9022570522948 0 0 0
1143 1 1 0 671.5528608836424 671.262754144198 663.0429817841044 0 0 0
994 1 1 0 665.8425099031575 662.2602517924191 651.3664629141621 0 0 1
784 1 1 0 679.2888887636464 675.0831685465399 655.9587340001942 0 0 1
141 1 1 0 667.434283950147 678.4483234716519 659.6079046416493 0 0 0
148 1 1 0 665.6088620914888 680.7070998011842 658.1896995737397 0 0 0
143 1 1 0 666.1586410438427 678.6382013880834 659.2286675361921 0 0 0
144 1 1 0 665.2118363337044 679.6550046204289 659.1043351455409 0 0 0
1016 1 1 0 671.7514174377914 665.34358534437 650.2077670802173 0 0 1
1791 1 1 0 668.096650222139 650.2290212684375 651.9129087546658 0 1 1
405 1 1 0 677.0120575025223 662.5042976869748 662.1194087644802 0 0 0
79 1 1 0 658.9064823239634 681.7429910472438 657.8039686817497 0 0 0
288 1 1 0 676.6527657173814 672.0200146402866 661.357701177067 0 0 0
937 1 1 0 654.2396827520201 662.3575076757979 650.7946860754156 0 0 1
424 1 1 0 676.2588931223175 668.321123916553 659.4545261695704 0 0 0
100 1 1 0 676.792397202889 672.9153691202209 662.4042081243288 0 0 0
508 1 1 0 671.825435368757 675.1147530942021 655.9201107315002 0 0 1
544 1 1 0 659.5968524433829 664.5888816219021 650.6646392041465 0 0 1
770 1 1 0 675.2862301363259 673.0184228200475 654.1797670206403 0 0 1
450 1 1 0 675.2365950701609 670.4368478436792 660.1447889313841 0 0 0
1034 1 1 0 669.7043001909852 674.0650131727361 655.3603192306468 0 0 1
905 1 1 0 668.1123309328015 655.5726025129103 650.8260991532143 0 0 1
947 1 1 0 651.8307688271061 663.4487038374073 652.2245274153588 0 0 1
494 1 1 0 675.7774193146253 671.8358854492145 654.794687758759 0 0 1
889 1 1 0 671.678019692032 669.570034711436 655.5103606824792 0 0 1
493 1 1 0 656.4052933151621 664.7398955212278 651.9472013209858 0 0 1
865 1 1 0 664.4320937420237 666.1460762475679 653.838045869305 0 0 1
254 1 1 0 676.3724917541151 669.6913573011301 659.7650015780281 0 0 0
785 1 1 0 651.9382767921119 662.1130953001193 651.6535565821702 0 0 1
898 1 1 0 662.5380728583522 657.5622184579178 651.1184776670474 0 0 1
933 1 1 0 676.468898986384 672.0527982463426 656.0236050377512 0 0 1
501 1 1 0 654.9908522951349 665.2507387903639 652.1527045313795 0 0 1
504 1 1 0 662.2074186772414 663.1689163785884 652.1815580436914 0 0 1
556 1 1 0 658.5856722737936 665.4685765722606 650.9563692627369 0 0 1
945 1 1 0 674.3691250308608 671.9892452364732 657.2916481522896 0 0 1
859 1 1 0 650.7939506626067 660.3607854107963 650.4175175362615 0 0 1
900 1 1 0 666.4060552245235 657.386250331073 650.8561915444226 0 0 1
949 1 1 0 679.4962106725352 674.0152077443759 656.8936904726226 0 0 1
1316 1 1 0 672.073721391265 673.5048953313668 663.7755140802446 0 0 0
1051 1 1 0 661.442550986825 665.8293369517111 651.7735285069784 0 0 1
61 1 1 0 679.9994756425331 678.5113836574104 656.7410566984438 0 0 0
897 1 1 0 666.7849076957775 659.9830605856109 651.1169320092072 0 0 1
491 1 1 0 666.5210507888746 670.0808439971959 654.4892254576563 0 0 1
426 1 1 0 677.6407728891767 670.1907595788549 660.1327508730209 0 0 0
530 1 1 0 668.6749566102419 667.5691919297296 655.2262394867861 0 0 1
940 1 1 0 674.9027012461198 669.5331784450711 650.3216264840108 0 0 1
429 1 1 0 677.7720492592082 671.3350683513638 660.9316344474566 0 0 0
425 1 1 0 678.7609889805937 669.4284798797239 659.9070432610847 0 0 0
963 1 1 0 656.2399080812141 663.2737081847201 651.644343267586 0 0 1
1900 1 1 0 667.2020352272388 651.3134035745348 651.8095269249117 0 1 1
82 1 1 0 668.0522399742583 674.3136610643572 656.9586373537783 0 0 0
909 1 1 0 664.51836573983 655.8967190892201 651.1829933962313 0 0 1
1318 1 1 0 672.6405409937 675.9356481783319 661.8121033958557 0 0 0
293 1 1 0 670.0710523548701 650.3663308656855 672.0846142165364 0 0 0
1050 1 1 0 667.3528126864713 649.5920404033808 675.1783343343614 0 0 0
983 1 1 0 672.4077348501218 669.399952605816 650.4738077252546 0 0 1
892 1 1 0 673.0601762253866 675.5660217066896 655.5454314313778 0 0 1
763 1 1 0 669.1647112009583 669.5314046781407 656.6822640182612 0 0 1
276 1 1 0 657.6647448986558 682.3039857537541 660.03267235844 0 0 0
25 1 1 0 680.5238668848724 680.3294255865925 660.9138711741163 0 0 0
431 1 1 0 679.1360198407219 673.0353431634452 661.9854572103944 0 0 0
1066 1 1 0 667.6515012509716 654.7700543683541 651.91065892659 0 0 1
1342 1 1 0 670.5338666346023 681.6527964931238 661.2394861484788 0 0 0
511 1 1 0 666.7441212578406 653.7149813394695 652.0536280550505 0 0 1
378 1 1 0 681.3267329348627 680.1497777986368 658.6972693091786 0 0 0
999 1 1 0 669.3644168140057 666.021184369261 651.3225190788039 0 0 1
528 1 1 0 665.3638551449534 650.7075353983838 674.8167617407636 0 0 0
507 1 1 0 654.8172008123665 662.8714334854732 652.0252398050319 0 0 1
936 1 1 0 669.9349650860406 667.3143589654758 651.8361843673806 0 0 1
782 1 1 0 657.2005691857916 665.5144961235508 650.9696524517512 0 0 1
1056 1 1 0 669.7770328873341 651.829079107027 673.7673556287236 0 0 0
959 1 1 0 673.2904751448742 665.9698348244566 650.2348756490891 0 0 1
1564 1 1 0 672.280374933136 672.0996264076491 664.0743943213523 0 0 0
755 1 1 0 665.1611235576761 665.3502718460576 650.7105501376243 0 0 1
932 1 1 0 650.6713041255081 661.4265685769556 651.4164633331056 0 0 1
212 1 1 0 664.9801968867935 663.3268299455125 679.7002686087507 0 0 0
213 1 1 0 665.5951309341849 662.1284013344732 679.5875424911253 0 0 0
214 1 1 0 664.5662917517429 664.523612541469 680.1310754065536 0 0 0
215 1 1 0 664.0365080853599 665.7186058500561 680.502810974519 0 0 0
216 1 1 0 667.0287382215004 658.4353071296292 678.871045844103 0 0 0
217 1 1 0 666.4713995024127 659.6345322161002 679.1467802645781 0 0 0
218 1 1 0 666.0215358909434 660.9450250567305 679.1929637174708 0 0 0
1008 1 1 0 669.892380717336 663.7552959365968 650.7279904900286 0 0 1
409 1 1 0 677.0681598682247 663.6708590257215 661.3147285028865 0 0 0
995 1 1 0 666.5054671105086 663.1307322231108 650.4664841792028 0 0 1
222 1 1 0 672.9848171894025 677.3021183518008 660.0930619353169 0 0 0
777 1 1 0 654.440006306837 665.8226538117674 650.9674144736982 0 0 1
224 1 1 0 670.6644719448304 673.8769965666618 658.8084951807132 0 0 0
789 1 1 0 673.9264208272891 673.4826307831438 654.2440152188536 0 0 1
1069 1 1 0 677.9910359903827 675.2360911335477 655.4484959531294 0 0 1
1072 1 1 0 665.3241578374368 667.1434936740517 654.0993852894992 0 0 1
953 1 1 0 675.0903263519426 670.5873741624475 654.5470872045715 0 0 1
957 1 1 0 674.4911353336703 668.0336874029232 651.64130314842 0 0 1
993 1 1 0 668.0538825730289 660.5966709804587 651.1130777900687 0 0 1
931 1 1 0 681.365019313951 675.3679268650176 657.7983528633114 0 0 1
1629 1 1 0 672.8252318521834 670.4409275579055 660.6226519756649 0 0 0
970 1 1 0 664.8407453159333 664.8170200427065 654.1590260431542 0 0 1
901 1 1 0 664.8352301235668 657.9774326188016 652.5681035128554 0 0 1
922 1 1 0 670.809776525368 668.4349252977545 653.6590283589039 0 0 1
856 1 1 0 679.3585594887003 677.46542517712 656.0167752451091 0 0 1
146 1 1 0 667.9486420892953 680.9636669551721 658.9615967715517 0 0 0
861 1 1 0 650.2840433670614 659.02827397505 650.5691377923145 0 0 1
1222 1 1 0 671.9929665072007 669.6123138487869 661.3568513942282 0 0 0
977 1 1 0 668.3218662656669 651.5948478212688 673.9791479960746 0 0 0
766 1 1 0 666.7113122354153 650.8903389226975 675.2178545440642 0 0 0
996 1 1 0 667.5038731640204 664.2533754153596 651.9033896074285 0 0 1
992 1 1 0 665.6345154511564 660.8058926671582 651.4300313154097 0 0 1
848 1 1 0 654.1714266680837 664.0619520588064 652.6529065129367 0 0 1
485 1 1 0 672.1793448692027 672.3519536065684 657.793775729736 0 0 0
246 1 1 0 674.8533902123785 678.7459088301881 659.7990472699397 0 0 0
1000 1 1 0 668.4234549628198 661.8861861575261 650.947823501662 0 0 1
1221 1 1 0 672.0849392649689 668.2264180866696 661.000064794576 0 0 0
249 1 1 0 673.429508670403 678.6170723947095 659.8014114338621 0 0 0
903 1 1 0 664.029185474379 659.1366311390441 652.3603213614142 0 0 1
1025 1 1 0 672.1744144545735 671.7078348265374 656.3907863247664 0 0 1
987 1 1 0 665.7771320768165 662.7660885620194 652.6975754636597 0 0 1
414 1 1 0 679.711382907784 665.8983698665628 659.8667542136537 0 0 0
301 1 1 0 667.8216958887139 650.6978805046863 673.000383010952 0 0 0
420 1 1 0 679.8465454808364 667.2645134018958 659.5966637442207 0 0 0
408 1 1 0 680.724131238889 663.7647678057597 660.394433194267 0 0 0
103 1 1 0 668.6163131023817 672.1379524643172 657.7797777902266 0 0 0
938 1 1 0 674.7926549309263 668.8006583581525 649.1376647866831 0 0 1
261 1 1 0 665.1361168537306 682.1234998013418 660.3590729173213 0 0 0
955 1 1 0 676.358311455765 669.5829346791786 652.5237187006254 0 0 1
985 1 1 0 664.5392056228359 660.4346959943924 652.1773780557573 0 0 1
262 1 1 0 668.2932621626502 652.5306929925482 676.5605345369434 0 0 0
128 1 1 0 679.317123399465 662.0584674864095 661.6331136520494 0 0 0
1168 1 1 0 672.9477268498013 667.8613168023795 663.2538799126174 0 0 0
265 1 1 0 663.505628612234 666.7937405574871 681.0235169120176 0 0 0
956 1 1 0 675.8440043685641 668.9337530292285 651.4005516200248 0 0 1
32 1 1 0 679.8474121530295 675.8644236094109 660.0160602685374 0 0 0
268 1 1 0 668.296216338524 653.4908815299492 677.4914636472508 0 0 0
1583 1 1 0 674.2336317775071 672.0122713623728 661.717287301223 0 0 0
470 1 1 0 673.5036123592355 676.8350481156443 655.9682326128996 0 0 0
533 1 1 0 675.3296379421863 675.3078586513353 654.8063708787586 0 0 1
31 1 1 0 681.2012730236487 676.3125416758692 660.0144949727862 0 0 0
925 1 1 0 670.3635018779307 668.2277796765924 650.9302285917446 0 0 1
441 1 1 0 677.9130830292934 678.2966054078229 657.6901309280537 0 0 0
419 1 1 0 677.3869530861837 667.496107085157 659.574721430116 0 0 0
918 1 1 0 680.0551666156938 676.2118348461765 655.8969217962174 0 0 1
521 1 1 0 661.8959144181573 663.7403478016967 650.8882068238199 0 0 1
914 1 1 0 667.9098584940015 672.099433055242 655.3352698792565 0 0 1
1059 1 1 0 652.938792486608 661.9860896002145 650.5753809335295 0 0 1
280 1 1 0 664.0135985005364 679.992617180385 659.8657559468239 0 0 0
954 1 1 0 675.2159170505134 669.9267622200214 653.370004065611 0 0 1
28 1 1 0 681.6885709307462 680.5298763996788 660.0769219626245 0 0 0
411 1 1 0 678.3265287827141 664.0791647017996 660.6902806344125 0 0 0
923 1 1 0 668.2658058798906 651.344047734756 675.6055666308039 0 0 0
904 1 1 0 662.7373248194083 658.6731397665911 651.9066468502372 0 0 1
404 1 1 0 667.9457348632874 655.9786519147605 678.4434921121062 0 0 0
974 1 1 0 673.9333958331079 669.4132252765078 652.5841831273466 0 0 1
81 1 1 0 670.6660132726463 652.9239618088292 671.8161815354091 0 0 0
1509 1 1 0 671.8466621814233 672.2128128385858 661.9088628880326 0 0 0
951 1 1 0 672.7291110531154 669.8893298682078 653.301513644175 0 0 1
845 1 1 0 667.0254148037324 669.3380853491079 655.5829688842375 0 0 1
418 1 1 0 677.2380136719809 666.114621890979 659.8922754931167 0 0 0
971 1 1 0 652.4900541191256 665.6639860880726 652.3262158957476 0 0 1
1074 1 1 0 669.6060067533377 650.4677530290826 675.6803680152541 0 0 0
423 1 1 0 681.1635690947687 669.2898557663704 659.845158002876 0 0 0
24 1 1 0 680.439237526563 678.1020673634241 661.611606997658 0 0 0
396 1 1 0 680.4238598596559 673.59720982182 662.1950537513862 0 0 0
765 1 1 0 671.5343630542664 669.1717609084908 652.7534336514301 0 0 1
1024 1 1 0 671.3209145979237 669.1349044570878 651.3931926511048 0 0 1
1038 1 1 0 663.787800143171 666.2181933892746 652.5573431091972 0 0 1
359 1 1 0 681.9081356962087 662.9721515246013 660.4165445786181 0 0 0
496 1 1 0 677.1890147348918 676.3732023661585 655.9173101675328 0 0 1
307 1 1 0 669.8722476369592 671.61022902126 657.9855865195744 0 0 0
1512 1 1 0 673.0126227174695 676.6836421145165 662.9654536487766 0 0 0
926 1 1 0 680.2154573953541 674.5333346569217 658.0425858732668 0 0 1
1335 1 1 0 672.5586045765418 679.3098733793182 662.9832901364805 0 0 0
17 1 1 0 673.46759510695 672.6905335295506 658.1025371847287 0 0 0
1049 1 1 0 650.6787580538348 664.1237669857733 651.5698753271354 0 0 1
788 1 1 0 667.8405344104194 670.0299218230952 656.5387638692436 0 0 1
1315 1 1 0 671.8101688298202 673.5365608854852 662.3956371776344 0 0 0
972 1 1 0 671.913222536636 672.7382569279607 655.2931779685788 0 0 1
1511 1 1 0 672.3993881849248 674.7337280163053 664.3700631009713 0 0 0
939 1 1 0 663.0645587581965 663.90112579295 650.0365088587535 0 0 1
11 1 1 0 674.8577187422038 677.1548763723324 656.2491195278405 0 0 0
469 1 1 0 670.1974500506477 651.8071090217836 672.3620552319987 0 0 0
316 1 1 0 667.5246782022841 657.2259931191254 678.601712304411 0 0 0
398 1 1 0 681.5258779254176 673.1335657861094 661.4527407302211 0 0 0
413 1 1 0 680.8738949462914 665.1443775973594 660.1267853723132 0 0 0
930 1 1 0 667.3118708386562 667.8915217722906 655.3666660253774 0 0 1
773 1 1 0 677.5910411914524 672.9472018637654 655.8790917912008 0 0 1
113 1 1 0 666.7502302879009 649.7729587242401 673.2097404675186 0 0 0
468 1 1 0 681.3775535668233 678.5662464544401 656.8210763502913 0 0 0
495 1 1 0 649.3929862280314 663.5398301588839 651.7732291676257 0 0 1
130 1 1 0 678.2180186423582 674.829219464133 663.2744456626565 0 0 0
512 1 1 0 664.3914981182724 649.8737710184251 675.5242553133392 0 0 0
18 1 1 0 660.5274568969382 681.6105876527034 661.7940676076786 0 0 0
106 1 1 0 665.4460460512809 650.121926109841 673.4456483975729 0 0 0
1002 1 1 0 667.6230272029647 662.5361807111316 649.8799348239186 0 0 1
286 1 1 0 681.7680851812087 679.8809593354708 663.119586321039 0 0 0
910 1 1 0 665.2215749553052 654.8341484211002 650.4961210414153 0 0 1
427 1 1 0 680.0140967963927 669.9859451060022 660.1336616553613 0 0 0
172 1 1 0 661.0067198281242 680.6730646284362 657.8601126396794 0 0 0
1842 1 1 0 666.3740629942802 651.3308120858405 650.6529848137257 0 1 1
67 1 1 0 662.887834882964 681.7899198479176 661.0754152437665 0 0 0
177 1 1 0 664.6267217627483 681.6866208166888 658.0005329644544 0 0 0
304 1 1 0 657.9475974195528 682.2634648049158 656.9780950339402 0 0 0
176 1 1 0 663.2129375798338 681.6148177039357 657.4969254852291 0 0 0
432 1 1 0 677.9911068101467 673.6044416336281 662.5884693215662 0 0 0
279 1 1 0 664.1356381595947 681.1520138152163 660.6939319555039 0 0 0
924 1 1 0 674.9487005211802 667.4687052671411 649.4580200140001 0 0 1
99 1 1 0 661.7363309012746 680.9061095621295 661.2750728526614 0 0 0
422 1 1 0 681.0765821635764 667.8702110618758 659.6751306560143 0 0 0
554 1 1 0 670.1806551927605 667.9423208676204 649.5381809708665 0 0 1
59 1 1 0 662.7490535035233 667.8109976165704 681.5212902032017 0 0 0
145 1 1 0 667.4995304117945 681.7604421605753 659.979083005785 0 0 0
406 1 1 0 659.3844242590587 680.999516204962 659.7052785873421 0 0 0
375 1 1 0 659.2813310819835 681.2572788609029 661.2027112157315 0 0 0
1057 1 1 0 655.1543546882518 665.4512675266297 649.8030016531542 0 0 1
403 1 1 0 679.4521225865476 675.3925307851342 663.3423196030263 0 0 0
428 1 1 0 680.1444803108793 671.2706223079252 660.7496559262539 0 0 0
476 1 1 0 663.456106328448 649.4378884233552 674.4777499303659 0 0 0
430 1 1 0 678.9973308526376 671.8618329125472 661.2156327100995 0 0 0
906 1 1 0 668.9620586044053 655.046847907359 649.8021929850894 0 0 1
969 1 1 0 664.137335993332 664.7085610192393 649.9251188650014 0 0 1
975 1 1 0 649.4678222859093 662.1221247337783 651.3513263691774 0 0 1
780 1 1 0 654.5751391957486 664.1783812800589 649.2560332120396 0 0 1
919 1 1 0 650.9429265182716 664.5805430713817 650.1899127574915 0 0 1
401 1 1 0 680.6154265962665 674.7449765682446 662.9842123281699 0 0 0
12 1 1 0 662.3032352085507 668.7287300941692 682.3599281125139 0 0 0
976 1 1 0 657.8350667541606 662.8345523323491 649.9338275420761 0 0 1
908 1 1 0 666.2204331757246 655.3376853046085 649.544905795677 0 0 1
393 1 1 0 681.9250245789478 675.1482333930461 663.266032374294 0 0 0
201 1 1 0 671.1330319760747 649.6538076585991 672.7388337665462 0 0 0
899 1 1 0 666.6083792180768 658.7333578445534 650.5932380412833 0 0 1
858 1 1 0 649.5333795668445 658.3710838285616 649.427491717683 0 0 1
2055 1 1 0 665.9290185856906 652.6156770107082 650.1052312192433 0 1 1
864 1 1 0 652.406076700081 661.9526164405435 649.2281916254188 0 0 1
1048 1 1 0 655.0489935989611 662.9796675507292 649.7516789047318 0 0 1
771 1 1 0 671.4534362257443 650.0280947239718 674.0649569672495 0 0 0
778 1 1 0 652.3343432025285 665.1251238491261 649.9595205601017 0 0 1
294 1 1 0 668.8461138418154 649.8150550704988 672.4120719100979 0 0 0
907 1 1 0 667.0538898160112 656.3050895124744 650.2531393602311 0 0 1
884 1 1 0 649.4925770909167 655.9849476479582 649.5837028774345 0 0 1
147 1 1 0 666.4936884479426 682.3831844898631 660.7139245222833 0 0 0
296 1 1 0 658.0734553975527 682.0163626351725 661.4347044506866 0 0 0
774 1 1 0 659.0466838038822 663.4565124707897 649.9645462342047 0 0 1
1032 1 1 0 656.4762002912928 665.9151009254701 649.7806666106394 0 0 1
1866 1 1 0 666.6302270708626 650.3616048312892 649.6344537556809 0 1 1
1075 1 1 0 649.1877153445348 655.8558795705412 650.9961085667958 0 0 1
19 1 1 0 682.084818375748 679.5453987122453 657.5990440188065 0 0 0
1730 1 1 0 668.7726984242695 649.4118878888402 649.695356034839 0 1 1
3465 1 1 0 653.3511563643783 665.4170912857002 682.2401540433392 1 0 0
964 1 1 0 653.9225367069586 666.637969603272 682.3235156483772 0 0 0
1933 1 1 0 668.0657339680015 650.5691646314029 649.1951390435246 0 1 1
487 1 1 0 657.7645709299982 667.5078329688005 700.3779838442257 0 0 0
488 1 1 0 658.7616573356355 667.154074495944 699.3572654755122 0 0 0
3095 1 1 0 651.0548450194344 657.7110619178101 689.0548905196428 1 0 0
943 1 1 0 671.2661752942225 668.2616393318062 715.2656394321823 0 0 0
1014 1 1 0 669.1693404442416 666.6403694788154 714.4128975703125 0 0 0
2277 1 1 0 668.9746785831966 654.1201268822459 714.0930349298402 0 1 0
1803 1 1 0 668.2744664503558 652.7144483750362 711.0203187481841 0 1 0
513 1 1 0 655.1393842123404 667.1356064091641 682.728904719781 0 0 0
921 1 1 0 674.7326906789511 666.5960639649619 714.9992477834454 0 0 0
1064 1 1 0 652.3036544982373 661.0499225263829 688.9476404857108 0 0 0
497 1 1 0 656.6769917391938 667.888327790688 684.6049755373713 0 0 0
868 1 1 0 650.2272874583749 661.4829225396537 714.8917249054695 0 0 0
2102 1 1 0 669.1042028688594 651.7388008511223 713.7801779764048 0 1 0
2981 1 1 0 649.757221815477 660.5312585197454 688.0857410230072 1 0 0
1017 1 1 0 673.7105645165261 665.7586410193585 715.404819620889 0 0 0
502 1 1 0 649.8656806616601 657.1605647982581 715.471404689149 0 0 0
503 1 1 0 659.3196915464418 669.5115102834624 690.2275709725426 0 0 0
2127 1 1 0 667.9618491240609 651.3850915820234 710.8754185768664 0 1 0
505 1 1 0 652.8806756866227 663.1383169531279 685.7961656603793 0 0 0
847 1 1 0 654.3043734351556 663.9370081135381 683.8859668523578 0 0 0
1022 1 1 0 670.2752649230542 666.2416032541421 712.305227066622 0 0 0
854 1 1 0 672.3774796252691 668.978150846022 715.7078865733768 0 0 0
2101 1 1 0 669.2471936633283 653.1890543082563 711.8412684573617 0 1 0
920 1 1 0 655.5107507014817 664.8742680365098 689.7001659254571 0 0 0
2980 1 1 0 649.5086473132087 656.307519659778 690.3771313438663 1 0 0
2109 1 1 0 668.0166715321 650.5212279626742 712.0077859040898 0 1 0
852 1 1 0 653.1108717276152 658.4145563142657 690.1104182592045 0 0 0
3312 1 1 0 650.0935903526042 660.6209808472631 690.4702413473775 1 0 0
515 1 1 0 679.7269373771902 666.6448636118884 703.7236337695692 0 0 0
3407 1 1 0 651.1065604205418 660.8735788215288 686.0617043623821 1 0 0
1788 1 1 0 669.2225361744042 650.6820545691888 712.8267276659642 0 1 0
1054 1 1 0 649.4088580045334 657.0655889718033 714.1135477914947 0 0 0
935 1 1 0 654.6885143113972 664.353129503076 687.4950554030398 0 0 0
520 1 1 0 658.7604722662065 669.2242583671779 685.1067509411179 0 0 0
929 1 1 0 671.2061000202702 667.9140777892438 713.9122372962174 0 0 0
522 1 1 0 655.8451060330165 666.388504800731 687.9070467097637 0 0 0
523 1 1 0 654.7302657711431 664.571809129352 686.1445585511416 0 0 0
517 1 1 0 680.7141104379895 667.1976782872598 707.0285024767873 0 0 0
525 1 1 0 658.6609870040071 668.9960861462349 686.4933555356901 0 0 0
526 1 1 0 655.9006439890694 666.6120742862596 686.5265781845359 0 0 0
527 1 1 0 655.4741262808456 665.6531061026972 685.6581954322104 0 0 0
3012 1 1 0 650.7822930234139 656.9259302796477 690.2750126033765 1 0 0