LAMMPS data file via write_data, version 2 Aug 2023, timestep = 50000, units = metal

39804 atoms
1 atom types

638.8447389877242 733.8432600122999 xlo xhi
639.2274987459157 734.1695002540855 ylo yhi
639.259416026005 734.1375829739961 zlo zhi

Masses

1 12.0107

Atoms # full

1 1 1 0 645.9540648147404 648.1228359702455 651.3311491051558 0 0 0
2 1 1 0 643.7014739189292 647.1101495398932 655.986974227286 0 0 0
3 1 1 0 642.0573977919902 660.0187676469178 647.6950074003603 0 0 0
4 1 1 0 650.2322405767198 645.4109159284652 654.0489527358588 0 0 0
5 1 1 0 647.9129916081405 640.3214056692907 640.4132116017014 0 0 0
6 1 1 0 647.2195540956602 639.9723688954915 642.6088294171637 0 0 0
8 1 1 0 647.9810308813845 649.1532456387663 655.0034392925538 0 0 0
9 1 1 0 643.7644198935844 651.3518251246418 640.6425903265032 0 0 0
10 1 1 0 642.4595085498637 650.8909948212963 641.1079970562007 0 0 0
11 1 1 0 641.3068297460703 651.540567215644 641.6594436881109 0 0 0
12 1 1 0 643.6013155460464 647.7743540184408 640.0678809133477 0 0 0
13 1 1 0 642.3114287924295 649.5560779896757 640.8962796109677 0 0 0
14 1 1 0 641.9557387818488 648.8473621452334 642.011953692285 0 0 0
15 1 1 0 641.1392881112839 649.4396219483009 642.9191349535417 0 0 0
16 1 1 0 645.848510743337 646.8471196823102 639.8687668977046 0 0 0
17 1 1 0 645.6556298617922 646.0148245474203 641.027273498752 0 0 0
18 1 1 0 643.5418798880715 647.1848661964156 641.3520622017097 0 0 0
19 1 1 0 644.48702997208 646.2129283569592 641.7974766486604 0 0 0
20 1 1 0 642.5945299991461 647.6884886966737 642.2772106922447 0 0 0
21 1 1 0 642.2546949140726 646.9379536765074 643.3682314565482 0 0 0
22 1 1 0 641.2094477850167 647.3373291760902 644.240250407197 0 0 0
23 1 1 0 647.4872069649879 644.4066901531817 640.7356376571189 0 0 0
24 1 1 0 647.54999534765 642.9753235312553 640.6089926174832 0 0 0
25 1 1 0 646.3326698223566 644.845136526719 641.4607326951289 0 0 0
26 1 1 0 645.8528688125781 643.9507687647712 642.4734597713816 0 0 0
27 1 1 0 644.0671161266891 645.4221747662493 642.837553896472 0 0 0
28 1 1 0 644.7075542854978 644.2689708086812 643.1949989715555 0 0 0
29 1 1 0 642.860416438404 645.7000772254862 643.5273939925177 0 0 0
30 1 1 0 642.1594495725714 644.6781690559309 644.1366716558676 0 0 0
31 1 1 0 640.8435186092277 644.9708211683301 644.4676378338619 0 0 0
32 1 1 0 647.2377942645638 642.2018395886039 641.7109117978902 0 0 0
33 1 1 0 647.4805296870102 640.8783412672826 641.6350519092009 0 0 0
34 1 1 0 646.3029939649126 642.6341981001325 642.6092766952969 0 0 0
35 1 1 0 645.7344008069375 641.5916237875939 643.4393773113153 0 0 0
36 1 1 0 644.0119789484542 643.2441445085681 643.9959850042193 0 0 0
37 1 1 0 644.5174352560346 641.939966138212 644.0702792448351 0 0 0
38 1 1 0 642.6718844767821 643.4300213698951 644.3721666120955 0 0 0
39 1 1 0 641.8234919477214 642.3852261532118 644.617888310586 0 0 0
40 1 1 0 640.4503962990864 642.6089953756817 644.423584396343 0 0 0
41 1 1 0 646.0924500982173 640.2853384526024 643.3376616929652 0 0 0
42 1 1 0 643.6501825950097 640.8443899570851 644.5121852900663 0 0 0
44 1 1 0 642.2993457693848 641.1293373013542 644.7437444479867 0 0 0
45 1 1 0 641.3918594693081 640.0363715168996 644.905084986791 0 0 0
46 1 1 0 640.5999119108683 640.7726865512349 651.181539594771 0 0 0
47 1 1 0 639.376148806325 659.9155401198159 648.8208500807859 0 0 0
48 1 1 0 643.307064209166 659.7088095193875 646.9954328934439 0 0 0
49 1 1 0 655.2577623430524 642.2848502111398 656.7908069284525 0 0 0
50 1 1 0 650.1612644743332 643.2897478669034 656.9411114567772 0 0 0
51 1 1 0 648.7114658954607 641.533215191769 657.5214862068983 0 0 0
52 1 1 0 648.0117248213355 643.2949310665695 655.8734606843233 0 0 0
53 1 1 0 654.4341058712333 646.97918013717 639.9747574284445 0 0 0
54 1 1 0 661.3909728571812 658.6870134208394 640.3482795997941 0 0 0
55 1 1 0 641.8218262107029 657.171674671526 644.3329207874654 0 0 0
56 1 1 0 640.7691139660568 660.1145492811509 642.8943679829315 0 0 0
57 1 1 0 639.5700143655683 641.5500894936212 644.5277024445911 0 0 0
58 1 1 0 640.5053419914406 648.5817836471144 643.9017393405626 0 0 0
59 1 1 0 644.9112850735999 639.9953811700245 657.0164709156957 0 0 0
60 1 1 0 640.2497027583642 645.4944520620492 647.2939423801668 0 0 0
61 1 1 0 644.1413904524136 654.4003019284414 658.4307723462638 0 0 0
62 1 1 0 642.8816917552685 658.5357515130305 641.8585671018735 0 0 0
63 1 1 0 644.0362926465435 642.0813739010339 656.2873474718286 0 0 0
64 1 1 0 659.422389143715 661.7864485212663 643.8959626988716 0 0 0
65 1 1 0 659.7591861385746 660.4352771835141 643.8259165565022 0 0 0
66 1 1 0 659.3124064715898 659.596881617614 642.8463396523899 0 0 0
67 1 1 0 661.280797864917 658.0388003986209 643.275807173014 0 0 0
68 1 1 0 659.8740550278867 658.354736181885 642.7180032393869 0 0 0
69 1 1 0 661.3585535888204 656.4979929822065 643.3868849915461 0 0 0
70 1 1 0 660.7365240971429 655.5813092456926 642.5384451634594 0 0 0
71 1 1 0 661.1404648451706 654.2305791852392 642.3924212098076 0 0 0
73 1 1 0 661.7236038473886 651.4815006826403 642.4549587332426 0 0 0
75 1 1 0 661.5149343209466 650.1886328272211 642.9782665715047 0 0 0
76 1 1 0 661.5868049024916 648.9917031235478 645.1311016412604 0 0 0
77 1 1 0 660.1767424253884 648.7309285054181 644.6074647918957 0 0 0
78 1 1 0 658.3616500974108 660.0422589605598 641.906402123978 0 0 0
79 1 1 0 657.7821919289819 659.1029326546987 640.9606163429225 0 0 0
80 1 1 0 659.1281450879451 657.3656644114695 641.985339191559 0 0 0
81 1 1 0 658.0793892511826 657.7345001840404 641.1500012840037 0 0 0
82 1 1 0 659.5470253440004 655.9947711822522 641.9497350428259 0 0 0
83 1 1 0 660.4501474915953 653.3115574975113 641.5999264500765 0 0 0
84 1 1 0 659.3631503993057 653.7465903380462 640.8973626878426 0 0 0
85 1 1 0 660.7647796220532 651.9331492912557 641.5185622023088 0 0 0
86 1 1 0 659.9656835419955 651.0051678475955 640.7879824544913 0 0 0
87 1 1 0 660.4838926387932 649.4277637974133 642.4393702951903 0 0 0
88 1 1 0 659.8787656945509 649.6928281167658 641.1832346626251 0 0 0
89 1 1 0 659.7726437488192 648.6983416861285 643.345300893862 0 0 0
90 1 1 0 658.7432591497674 647.9763116227645 642.8768684240833 0 0 0
91 1 1 0 639.3457960552183 651.0230374531233 643.0968860936556 0 0 0
92 1 1 0 658.8951046906052 648.8486769318987 640.6900816340374 0 0 0
93 1 1 0 658.3936224713802 647.9310414209656 641.5678862844168 0 0 0
94 1 1 0 658.1279455161886 646.4894386179377 641.1245351006182 0 0 0
95 1 1 0 647.1506911353694 641.1930563311054 659.4429972274389 0 0 0
96 1 1 0 640.1234743691487 643.3216359567764 662.252996506068 0 0 0
97 1 1 0 656.9706333606917 645.938879078011 640.1401535546553 0 0 0
98 1 1 0 655.3711877401549 645.9239453447223 640.0707926377266 0 0 0
99 1 1 0 644.5927875990096 647.0874248806361 654.9667667849842 0 0 0
100 1 1 0 646.8657602060599 653.0232250256169 657.3742140280901 0 0 0
101 1 1 0 644.1140260037869 643.6377379140818 655.9897687869234 0 0 0
103 1 1 0 640.7300760504801 646.2554167616721 645.0832328492503 0 0 0
104 1 1 0 646.6616700573635 643.0205786016359 656.0056401845087 0 0 0
105 1 1 0 648.3803011611984 644.4733765268271 655.142918744993 0 0 0
106 1 1 0 640.332124860745 644.9960146209039 658.7181493691427 0 0 0
107 1 1 0 648.9171418718028 642.6483887786025 656.7268145212748 0 0 0
108 1 1 0 651.1336584070276 645.6076269843788 657.0294720553707 0 0 0
109 1 1 0 648.8923057488861 641.7182072796259 660.9563945817605 0 0 0
110 1 1 0 651.6225873968133 645.1512604062932 658.3030871974399 0 0 0
111 1 1 0 647.4593978385114 645.4314233835763 654.5448540113981 0 0 0
112 1 1 0 649.7086678827505 644.8130030931351 655.1874373879805 0 0 0
113 1 1 0 658.2748184761177 662.316088806621 642.9299416173513 0 0 0
114 1 1 0 657.8576161844557 661.4450949548715 641.8779163588263 0 0 0
115 1 1 0 656.9988136225567 661.5594277899527 640.6727304415747 0 0 0
117 1 1 0 646.0855965538005 645.0449284162831 654.6809386132685 0 0 0
118 1 1 0 651.0210814759138 642.8342411535091 657.8959524572736 0 0 0
119 1 1 0 645.9587526376118 652.8570559139104 658.4116386459096 0 0 0
120 1 1 0 643.3507638820097 660.1106038711051 645.6183766865241 0 0 0
122 1 1 0 647.6457520194324 642.068905110534 660.3741719345271 0 0 0
123 1 1 0 644.1782953381673 661.1065171960003 643.5359657550741 0 0 0
124 1 1 0 644.9338490801291 662.2215567070754 641.5771504546904 0 0 0
125 1 1 0 645.1662219686174 661.3071486718438 642.6138462250707 0 0 0
127 1 1 0 647.2710423582397 662.2308350893819 641.6819717178223 0 0 0
129 1 1 0 644.4023545154116 660.1179561106493 644.5770762976093 0 0 0
130 1 1 0 645.0859554983728 658.9852812632088 644.0297874377133 0 0 0
131 1 1 0 646.0797633330928 660.2664892666223 642.2803785529773 0 0 0
132 1 1 0 645.2904606898413 659.1209701058352 642.6035802852681 0 0 0
133 1 1 0 647.246985430031 660.8116506434966 641.5746638507662 0 0 0
134 1 1 0 647.8598704773381 660.0800349870553 640.5273554549733 0 0 0
135 1 1 0 650.0683878442027 661.6588591439436 642.3742886059183 0 0 0
136 1 1 0 650.54127068846 661.574949393081 641.1109484737967 0 0 0
137 1 1 0 649.2191061270511 662.2866715875149 643.3358090268231 0 0 0
138 1 1 0 652.1077924747983 641.3431155081146 659.3741473155949 0 0 0
139 1 1 0 645.4225047040858 653.8273830532502 660.4354134484819 0 0 0
140 1 1 0 650.424820785244 644.5790624700459 656.3480574337519 0 0 0
141 1 1 0 640.6251794152374 650.7684269356869 642.6630289538812 0 0 0
142 1 1 0 640.6036581579818 652.5941866570956 641.0723698003051 0 0 0
143 1 1 0 652.4429808808222 641.189192004832 662.1005862831786 0 0 0
144 1 1 0 641.0026737763567 641.2730226494056 661.5455450908388 0 0 0
145 1 1 0 640.5591809376402 660.173651440341 649.5571406203492 0 0 0
146 1 1 0 643.258027609565 650.8867978342103 661.1294400038626 0 0 0
147 1 1 0 639.3573219216762 659.7798761809862 643.488876492725 0 0 0
148 1 1 0 654.64903355383 644.7403773729283 640.3384077941945 0 0 0
149 1 1 0 640.8509563691937 659.6619158003836 646.929355241763 0 0 0
150 1 1 0 642.4043340122251 644.333880948982 660.1856174041101 0 0 0
151 1 1 0 649.7141981406639 640.8114849845102 658.1971650256121 0 0 0
152 1 1 0 646.2966924956794 642.0792792215489 657.1123518445191 0 0 0
153 1 1 0 653.3665921760646 641.5809359203064 658.5746434321361 0 0 0
154 1 1 0 644.0465690403868 645.9167703803278 649.3327412033478 0 0 0
155 1 1 0 647.3308439443875 641.1410480464681 657.8786861545988 0 0 0
156 1 1 0 650.9143575566787 641.6326253515765 658.5938059072513 0 0 0
157 1 1 0 655.2947522317315 640.9081858454864 656.962796081449 0 0 0
158 1 1 0 644.7716191296822 649.0336909302463 656.9164299954621 0 0 0
159 1 1 0 646.9387382576047 650.5980145583177 656.9612757078679 0 0 0
160 1 1 0 643.0351242260738 657.2756236192355 641.0368616314984 0 0 0
161 1 1 0 640.7541381117923 644.4342260907541 656.2380556887559 0 0 0
162 1 1 0 645.676131654876 643.906413946031 655.4818095063533 0 0 0
163 1 1 0 641.9746307522357 646.1723847111979 657.313689543052 0 0 0
164 1 1 0 655.061007847241 642.0956731583871 643.2866672965403 0 0 0
165 1 1 0 640.0239216046251 657.8071517312253 661.5996456097209 0 0 0
166 1 1 0 644.0209672236639 644.3125696634147 658.4365657445138 0 0 0
167 1 1 0 644.7291273836161 658.260651593352 640.397828701142 0 0 0
168 1 1 0 645.0801166181003 641.3386542673335 656.749165344936 0 0 0
169 1 1 0 642.5484449684141 640.3199772167912 657.0160690088304 0 0 0
170 1 1 0 642.2011584139177 642.6020039624906 657.823963735953 0 0 0
171 1 1 0 640.386642823263 660.6589654420746 650.8680369255932 0 0 0
172 1 1 0 641.6367996597696 645.571201496442 647.7387746918652 0 0 0
173 1 1 0 640.3443276122464 658.9285667793331 660.8091018171306 0 0 0
174 1 1 0 643.3073735929164 645.8272953340843 656.6688202482338 0 0 0
175 1 1 0 641.8873490927261 660.0231097516196 649.030220257557 0 0 0
176 1 1 0 645.1451567541914 646.3934850858461 652.7383338282663 0 0 0
177 1 1 0 643.171584117039 644.0963270576119 650.654065232803 0 0 0
178 1 1 0 641.8920430444145 647.2438412685507 658.1089440688504 0 0 0
179 1 1 0 640.9990419791916 650.6009482463769 661.9423303742012 0 0 0
180 1 1 0 642.7445562915286 648.3387755163858 657.8601167907894 0 0 0
181 1 1 0 640.9974502132446 645.2267409281422 657.3621785472013 0 0 0
182 1 1 0 645.1266979859167 653.7414580694925 659.0802349416202 0 0 0
183 1 1 0 639.5351013592635 640.3764629737462 653.6668762039626 0 0 0
184 1 1 0 641.4872597083915 642.5425241452916 649.7461984213826 0 0 0
185 1 1 0 643.8529164013074 653.3254430216758 640.9427683387995 0 0 0
186 1 1 0 642.7065416881208 653.7761409433961 641.4172474478972 0 0 0
187 1 1 0 644.4186601009469 652.1669640132612 641.8084497702181 0 0 0
188 1 1 0 644.3401912547903 652.3368236388939 643.2678274098217 0 0 0
189 1 1 0 644.8588903071073 650.1722824189958 644.6080311962944 0 0 0
190 1 1 0 644.8388748486921 651.5900941347735 644.4983424654981 0 0 0
191 1 1 0 644.7674811251848 649.5282853526612 645.8313231005816 0 0 0
192 1 1 0 644.7224075163697 650.1062459880029 647.0941070472347 0 0 0
193 1 1 0 644.9845736359284 647.9999268335073 648.342726429187 0 0 0
194 1 1 0 646.2896502847279 647.641953123417 648.9863998941926 0 0 0
195 1 1 0 649.0290858746304 646.9944683052452 650.8881571191278 0 0 0
196 1 1 0 648.4499105691503 648.2709430195855 650.6643766903205 0 0 0
197 1 1 0 649.8534072405058 646.8218011360401 652.0628515972971 0 0 0
198 1 1 0 650.7747996009674 647.9091947322165 652.2523758791216 0 0 0
199 1 1 0 652.9081437145168 646.6903853678693 652.6243893458683 0 0 0
200 1 1 0 652.0449408376314 647.830626093277 652.9315857370542 0 0 0
201 1 1 0 652.6774743462262 645.541915932766 653.370147653059 0 0 0
202 1 1 0 651.6214226452645 645.7657198310317 654.3086308660135 0 0 0
203 1 1 0 644.895888370726 649.4060596299738 648.2977348009891 0 0 0
204 1 1 0 647.2602544825021 648.5116788607382 649.8868172701957 0 0 0
205 1 1 0 642.6868126240977 654.0294905566742 642.8225986420214 0 0 0
206 1 1 0 641.8906477310592 655.1336143054766 643.1123808905121 0 0 0
207 1 1 0 643.6363437376002 653.5133901506714 643.6690238993457 0 0 0
208 1 1 0 643.6891671599818 654.1582397038549 644.962139260129 0 0 0
209 1 1 0 644.6976535784364 652.1823622909643 645.8351945082866 0 0 0
210 1 1 0 644.4482250129405 653.539960897831 645.9738714268289 0 0 0
211 1 1 0 644.7910707725465 651.5083499030789 647.0473170871858 0 0 0
212 1 1 0 645.0072837189978 652.2139742718362 648.2217047102915 0 0 0
213 1 1 0 645.3355227628183 650.1420447778689 649.4108063272781 0 0 0
214 1 1 0 645.3492067390647 651.5311844299061 649.4348522179854 0 0 0
215 1 1 0 646.2190651163629 649.5196250358397 650.5605099559191 0 0 0
216 1 1 0 646.8964447527002 650.518810622867 651.4547547451125 0 0 0
217 1 1 0 648.9035131920768 649.2995621884135 651.5925313470402 0 0 0
218 1 1 0 648.0656293171771 650.2894439022701 652.1044010391371 0 0 0
219 1 1 0 650.0839123992216 649.0989197545567 652.4505963845401 0 0 0
220 1 1 0 642.3292764934233 655.9392804946249 644.1181571264202 0 0 0
221 1 1 0 643.2135813789012 655.4443955934532 645.0452733153651 0 0 0
222 1 1 0 643.4273883103696 656.1576460354178 646.1641363174971 0 0 0
223 1 1 0 644.4711000540094 654.2786447661657 647.1255650004908 0 0 0
224 1 1 0 644.1780309251968 655.6144183338666 647.2265676781333 0 0 0
225 1 1 0 644.8971721293375 653.618953489153 648.3221138667699 0 0 0
226 1 1 0 644.893619631039 654.3757561341413 649.498840380805 0 0 0
227 1 1 0 645.6467241657903 652.3230763745449 650.5786971299406 0 0 0
228 1 1 0 645.4737005840115 653.7290420384118 650.5747839972876 0 0 0
229 1 1 0 646.3521420595455 651.7720818483264 651.6582570200784 0 0 0
230 1 1 0 646.8163422937681 652.676027385963 652.701343716311 0 0 0
231 1 1 0 648.3072525076233 651.0286244462905 653.2442911578539 0 0 0
232 1 1 0 647.8334887731712 652.2560128727793 653.5139484874624 0 0 0
233 1 1 0 648.9214300242866 650.262670666542 654.3957873854334 0 0 0
234 1 1 0 644.3249250104981 656.4092997837228 648.3668792729433 0 0 0
235 1 1 0 644.0084833081379 657.7875918965684 648.392064031075 0 0 0
236 1 1 0 644.7461190380001 655.7495555826788 649.5252219154023 0 0 0
237 1 1 0 644.871234373496 656.5106657383002 650.6618055642243 0 0 0
238 1 1 0 645.7124909234103 654.4859108417623 651.7297932615232 0 0 0
239 1 1 0 645.3873054993778 655.8489702412041 651.8105665665541 0 0 0
240 1 1 0 646.3103559271344 653.9599285460125 652.8375885814963 0 0 0
241 1 1 0 646.679529744243 654.7728570743129 653.8932573425908 0 0 0
242 1 1 0 648.1823746084365 653.0641195768287 654.6579737996636 0 0 0
243 1 1 0 647.4966086870468 654.2460703168715 654.921614472172 0 0 0
244 1 1 0 648.9261539178435 652.4984131841692 655.6860026159413 0 0 0
245 1 1 0 643.7614783109844 658.4348376296465 649.6342140500907 0 0 0
246 1 1 0 642.8821385035392 659.4931763024316 649.9166652073471 0 0 0
247 1 1 0 644.4057715183028 657.8397881924441 650.7527654171089 0 0 0
248 1 1 0 644.4518554773698 658.4993325086506 652.000247496797 0 0 0
249 1 1 0 645.5461218424315 656.6421496564093 652.9442351792885 0 0 0
250 1 1 0 644.9847415300031 657.8621045415528 653.0944458082784 0 0 0
251 1 1 0 646.0849133202122 656.0367243625534 654.0891851751575 0 0 0
252 1 1 0 646.1819699753736 656.6722483207959 655.3250740366689 0 0 0
253 1 1 0 647.5375098983491 654.9342119379365 656.1289837834371 0 0 0
254 1 1 0 646.7877104332802 656.0351836988248 656.4118645503216 0 0 0
255 1 1 0 647.875770684947 654.0756010423995 657.272927617334 0 0 0
256 1 1 0 642.7778667965928 660.0463120008671 651.2266759867081 0 0 0
257 1 1 0 643.738314196494 659.6908580002804 652.1665928202515 0 0 0
258 1 1 0 643.6281269797477 660.3073750040244 653.4184175303997 0 0 0
259 1 1 0 645.0711251433381 658.5866725071978 654.2875261309803 0 0 0
260 1 1 0 644.3239350083109 659.731537668635 654.4807335603911 0 0 0
261 1 1 0 645.4810036817969 657.8412753789016 655.4367109523204 0 0 0
262 1 1 0 645.2091885378481 658.219506120814 656.7850406544765 0 0 0
263 1 1 0 646.5766290939761 656.5223423494934 657.7138583349944 0 0 0
264 1 1 0 645.5883923597526 657.4691950079485 657.9097471135581 0 0 0
265 1 1 0 647.0813781222296 655.8148330737457 658.868466690759 0 0 0
266 1 1 0 645.9502645316642 647.0678539989267 650.3259141027426 0 0 0
267 1 1 0 642.746051863494 661.3456859544284 653.6510410361507 0 0 0
268 1 1 0 642.4941879210334 661.8164395599518 654.9749834727502 0 0 0
269 1 1 0 644.0048298942675 660.063602247314 655.8026477630299 0 0 0
270 1 1 0 642.9797945235279 660.9606908310271 655.9995129042203 0 0 0
271 1 1 0 644.2781728370131 659.2273903130992 656.895780834786 0 0 0
272 1 1 0 655.9437211678544 641.1432580846437 642.8784764627252 0 0 0
273 1 1 0 650.1077996235045 649.5588464344477 653.7726280877752 0 0 0
274 1 1 0 651.9200067467062 648.1091198954056 654.3462452964761 0 0 0
275 1 1 0 651.0701312345741 649.1972063105666 654.7131262614087 0 0 0
276 1 1 0 651.7638073584122 646.9750672889407 655.1662833606043 0 0 0
277 1 1 0 651.2692253932543 646.9676882857889 656.4883908685478 0 0 0
278 1 1 0 649.4673679659863 651.255698980486 655.4728330476999 0 0 0
279 1 1 0 650.9151077836235 649.4523808196208 656.0746938387157 0 0 0
280 1 1 0 650.3692333191976 650.7190432914803 656.3693820079391 0 0 0
281 1 1 0 650.8605116321976 648.3783827658946 657.0852150215261 0 0 0
282 1 1 0 650.2110449485122 648.8071305163315 658.3090640900347 0 0 0
283 1 1 0 649.0366909724573 653.1626757240955 656.8999307156694 0 0 0
284 1 1 0 650.2063150044062 651.1830538888762 657.7268466040722 0 0 0
285 1 1 0 649.7167769696742 652.5323014337032 657.9621694656236 0 0 0
286 1 1 0 650.2550351800958 650.1902570780483 658.7124827450853 0 0 0
287 1 1 0 650.2816566040839 650.6400906727913 660.1031599822168 0 0 0
288 1 1 0 648.0100320298131 654.8008785802346 658.6160467708478 0 0 0
289 1 1 0 649.3990232456922 652.876523229028 659.3551015057554 0 0 0
290 1 1 0 643.4397785608975 659.1543358660441 658.0018260315325 0 0 0
291 1 1 0 644.9200458182463 657.6776016805927 659.0932146241469 0 0 0
292 1 1 0 643.6767560933463 658.3489069289772 659.1101020275859 0 0 0
293 1 1 0 645.2228605905315 656.8440844495098 660.1635599823907 0 0 0
294 1 1 0 642.1959413681296 660.9049408906326 657.1083296564864 0 0 0
295 1 1 0 641.0773293917399 661.6961353970313 657.3608137738455 0 0 0
296 1 1 0 642.3303679756943 659.8937140760052 657.9836560078712 0 0 0
297 1 1 0 641.1938899691283 659.9422023199232 658.8590415729581 0 0 0
298 1 1 0 642.7594898412748 658.3824594060748 660.2004426841601 0 0 0
299 1 1 0 641.4603749590634 659.067601001222 659.9811063590103 0 0 0
300 1 1 0 648.5301371841628 653.9983807322192 659.686972304978 0 0 0
301 1 1 0 649.5522047688139 651.9037933191094 660.3874481889917 0 0 0
302 1 1 0 648.5679710429858 651.8835838778208 661.4465566351199 0 0 0
303 1 1 0 646.3625934514276 655.9795800405577 660.0618926596487 0 0 0
304 1 1 0 647.772584440346 654.0753715920055 660.933475764484 0 0 0
305 1 1 0 646.393945903869 654.793943111553 661.0064781962059 0 0 0
306 1 1 0 648.0027423928767 653.1085022214827 661.9510819192451 0 0 0
307 1 1 0 644.3754548922993 656.7970280054882 661.2666162376563 0 0 0
312 1 1 0 662.042907025474 655.9372238059849 644.4864879487322 0 0 0
314 1 1 0 661.9209903165923 657.9932379840571 645.7173148101131 0 0 0
315 1 1 0 661.2682162710117 658.652487332149 644.6707912323598 0 0 0
316 1 1 0 661.2149248873093 660.7210724026526 645.8333680421908 0 0 0
317 1 1 0 660.6785241356547 659.8811933052721 644.7923598340739 0 0 0
318 1 1 0 661.8199221179656 660.1028880324733 646.9500912626564 0 0 0
319 1 1 0 661.1752542132252 662.1537342545959 645.6167275894827 0 0 0
320 1 1 0 655.1138270071374 639.6309758140719 645.5625619781537 0 0 0
321 1 1 0 640.185842190534 661.0704589045463 658.3173524005234 0 0 0
322 1 1 0 654.7501315206956 642.1304470647449 645.3254967241751 0 0 0
323 1 1 0 657.7545093245676 640.4932763798366 648.7799671882271 0 0 0
324 1 1 0 656.3099183459854 641.2829129785713 646.9842985093844 0 0 0
325 1 1 0 656.9057059958895 640.2073494396295 647.6267431481456 0 0 0
326 1 1 0 655.3014503075191 641.0229189060827 646.0125090503288 0 0 0
328 1 1 0 658.6690138477344 639.826328737991 650.9235136121034 0 0 0
329 1 1 0 657.9352705131432 639.5090960843924 649.7667171220626 0 0 0
330 1 1 0 646.0511160988985 651.6098530462311 659.016025532797 0 0 0
331 1 1 0 642.5757302148744 661.9562554861524 642.0046997102089 0 0 0
332 1 1 0 641.890712145914 657.8342893080097 645.5005795423862 0 0 0
333 1 1 0 640.8846480300123 648.3978230174603 660.0357422607802 0 0 0
334 1 1 0 645.4190690509167 648.193573244459 654.8126721950897 0 0 0
335 1 1 0 647.6565031321652 647.9649327751687 654.1960558629813 0 0 0
336 1 1 0 646.107885659167 650.528822778775 658.1086584556725 0 0 0
337 1 1 0 645.3692970935504 651.5247466840277 660.2278192920155 0 0 0
338 1 1 0 645.0016377605335 649.7595968447051 658.054544314767 0 0 0
339 1 1 0 645.6413905107349 649.0686585948279 655.837196918978 0 0 0
340 1 1 0 647.2167557383223 639.6582491303274 657.5623180170273 0 0 0
341 1 1 0 644.058434386966 649.8798172797908 659.126469034153 0 0 0
342 1 1 0 642.8988867974239 649.2246726737459 658.9869570882378 0 0 0
343 1 1 0 645.288678030806 652.6220530454642 661.0899763208993 0 0 0
344 1 1 0 644.2563807140418 650.6932775741117 660.2506930904044 0 0 0
345 1 1 0 641.6747196700866 658.8192180593002 642.4381904142856 0 0 0
346 1 1 0 644.4988119004082 653.9734399759149 639.6575363446975 0 0 0
347 1 1 0 646.910042258697 649.5967927713604 655.93694546137 0 0 0
348 1 1 0 640.2894955811951 661.3804541391639 642.07903236335 0 0 0
349 1 1 0 656.8859150396552 645.0357554828868 643.0081095387459 0 0 0
350 1 1 0 657.4289848495534 644.7319287760184 646.3709398974005 0 0 0
351 1 1 0 656.3255398192316 645.2386001893217 644.3238618381255 0 0 0
352 1 1 0 655.1589805847079 644.5519569492232 644.6785594303204 0 0 0
353 1 1 0 657.9894055424048 642.7815496039078 648.1227186955562 0 0 0
354 1 1 0 656.5076130349454 643.622905303496 646.4147995607434 0 0 0
355 1 1 0 656.8584147377854 642.5701066329947 647.2121399528281 0 0 0
356 1 1 0 655.3380085186614 643.429017551096 645.5500583370831 0 0 0
357 1 1 0 658.4055415845139 641.7397588805646 648.9675291842722 0 0 0
358 1 1 0 640.9523257006167 647.3500083351487 659.1949435337632 0 0 0
361 1 1 0 661.6001660838804 647.9383876649601 646.4602548006286 0 0 0
362 1 1 0 661.6440025897253 647.2725278973385 647.746659938879 0 0 0
363 1 1 0 660.1418510079768 647.7676124071145 645.7142016347229 0 0 0
364 1 1 0 659.2637794191265 646.8023429749861 645.9451122070508 0 0 0
365 1 1 0 658.3965576440088 646.7599156715214 643.5978199622422 0 0 0
366 1 1 0 658.2714369683722 646.477627857018 644.9626594001636 0 0 0
367 1 1 0 657.7842199820655 645.9750372538792 642.6081008275428 0 0 0
369 1 1 0 661.9043524790142 645.2781286409631 649.77792105849 0 0 0
370 1 1 0 660.6586080453152 646.1622048507298 647.8330466033213 0 0 0
371 1 1 0 660.8372751822295 645.2046896041949 648.8803898817532 0 0 0
372 1 1 0 659.5442281971443 645.9158921642222 646.9705466845681 0 0 0
373 1 1 0 658.5823685656172 644.9142325039886 647.1553539251078 0 0 0
374 1 1 0 657.2868308245438 645.5508965993744 645.2689859961084 0 0 0
376 1 1 0 662.1298574877892 644.2656662529183 650.7290440247816 0 0 0
377 1 1 0 661.1171624265768 643.303722449037 650.9257195913598 0 0 0
378 1 1 0 659.85725550083 644.14158824802 649.0299903159543 0 0 0
379 1 1 0 660.0507578520035 643.1628815324369 650.0281539320927 0 0 0
380 1 1 0 658.8687841011417 643.9373688213237 648.0795136788349 0 0 0
383 1 1 0 661.2975428153651 642.263381014009 651.8924410828122 0 0 0
384 1 1 0 660.3260737279079 641.2271927766509 652.0723863969725 0 0 0
385 1 1 0 659.2733315658045 641.985456390114 650.0572436745492 0 0 0
386 1 1 0 659.3937829999068 641.0302234552353 651.0682237504818 0 0 0
387 1 1 0 661.7185934982707 640.2227340982362 653.7873084891032 0 0 0
388 1 1 0 660.4005676070288 640.3829615224041 653.2044041984302 0 0 0
389 1 1 0 643.0743874499714 657.5171408577156 661.3098946897696 0 0 0
390 1 1 0 644.7744501839013 656.028176376389 662.391099420352 0 0 0
394 1 1 0 660.0240117492546 662.5319722108511 644.8960287381666 0 0 0
397 1 1 0 643.6270991492538 646.5107766121627 661.6789722383324 0 0 0
398 1 1 0 644.4959542149022 645.7251353792166 660.548933929158 0 0 0
399 1 1 0 645.1896648063738 646.6510586979971 659.5470326219964 0 0 0
400 1 1 0 641.1852258417629 641.5056125290365 652.2521564730346 0 0 0
401 1 1 0 641.2846975266777 659.1266309867935 645.6609569356315 0 0 0
402 1 1 0 645.5558005259985 646.0332425889758 658.3473553766527 0 0 0
403 1 1 0 644.4605010911366 645.4994731543825 657.64529079016 0 0 0
404 1 1 0 646.9664019604468 645.6930229346095 658.3281890473961 0 0 0
405 1 1 0 647.2344816399068 644.3536835821579 658.3784859307104 0 0 0
406 1 1 0 643.2680842588647 643.5527877253683 657.4139973109104 0 0 0
407 1 1 0 646.2350645463944 643.4242254440827 657.9779261379015 0 0 0
408 1 1 0 645.1386892147204 643.4652822662518 658.8847342212418 0 0 0
409 1 1 0 645.3760489426288 642.9569268550449 660.1309126272986 0 0 0
410 1 1 0 645.5202847646705 648.2540222069733 661.2395966567741 0 0 0
411 1 1 0 645.9093764936117 647.6792907205153 660.0078492092284 0 0 0
412 1 1 0 652.1004917806822 643.7456445707571 658.222768933109 0 0 0
413 1 1 0 648.1748077240458 650.5535560113849 661.8809885492709 0 0 0
414 1 1 0 650.7727576929786 649.6985205071 661.0298603779471 0 0 0
415 1 1 0 647.6838572191543 649.5006677307548 661.0832221609743 0 0 0
416 1 1 0 648.1667573652112 648.686397282243 659.9882945886358 0 0 0
417 1 1 0 650.6988032701216 648.3596969506041 660.5508092032958 0 0 0
418 1 1 0 649.6263802143537 647.9792103263547 659.5161215781857 0 0 0
419 1 1 0 651.4891924905443 647.3395902687759 661.1309681019783 0 0 0
420 1 1 0 650.9634076347169 645.8174818388482 659.3714439501417 0 0 0
421 1 1 0 647.2658050068734 647.7099415713933 659.5538307526854 0 0 0
422 1 1 0 647.8253132004447 646.5801766451146 658.9439081027068 0 0 0
423 1 1 0 649.3830401631525 646.3820852032374 659.5063340804194 0 0 0
424 1 1 0 649.002475499359 645.2700365213268 660.6668174471099 0 0 0
425 1 1 0 651.5462253197356 645.9967787103665 660.6311380450607 0 0 0
426 1 1 0 651.53745652938 644.8667894695195 661.4203684135683 0 0 0
427 1 1 0 649.20948428168 643.9308006820352 660.1825857257338 0 0 0
428 1 1 0 647.944574941841 643.8100978683665 659.4795509829706 0 0 0
429 1 1 0 649.7419473246289 642.8377855751172 660.9319387220557 0 0 0
430 1 1 0 646.7976005544045 643.3615500876318 660.6283122701534 0 0 0
431 1 1 0 652.0019711341745 643.1507780286103 641.2305643225561 0 0 0
432 1 1 0 642.3801688821744 641.113053148986 661.3293348154564 0 0 0
433 1 1 0 662.0134739370269 660.9619750605611 658.9362367739465 0 0 0
434 1 1 0 644.9888511390628 646.1466332408716 650.3662462080482 0 0 0
435 1 1 0 648.08887143155 645.27810363718 661.7474688053462 0 0 0
436 1 1 0 643.1448221956729 644.8283268431138 649.4488415244133 0 0 0
437 1 1 0 652.7319041441136 642.5377852186052 643.3265329172234 0 0 0
438 1 1 0 642.8253521640504 643.6233919133504 661.3721331716166 0 0 0
439 1 1 0 641.7598003521091 660.7167941996385 643.8238106010556 0 0 0
440 1 1 0 641.299315882086 653.9154184026373 640.7898298291504 0 0 0
441 1 1 0 641.5975122254372 661.499201772159 652.7680519622307 0 0 0
442 1 1 0 656.8956977757457 641.5435053262041 641.9149422221301 0 0 0
443 1 1 0 642.604968021819 646.6491666079193 647.5937274623251 0 0 0
444 1 1 0 640.0480119403486 657.0133537047301 642.8163341008454 0 0 0
445 1 1 0 642.0484539802018 660.0990582088348 644.9652729605325 0 0 0
446 1 1 0 639.9516810591024 648.4615870544809 661.0834676793561 0 0 0
447 1 1 0 639.9199332236985 649.6804197778905 661.9033169589006 0 0 0
448 1 1 0 661.8745348828395 660.0257077912609 660.1374781456177 0 0 0
450 1 1 0 661.4768510601411 657.8348819629031 661.1544090727374 0 0 0
451 1 1 0 661.148762365626 656.4950213971435 660.9862217192791 0 0 0
452 1 1 0 660.6494667790957 655.6131177099833 662.0635473202086 0 0 0
453 1 1 0 660.1235593323198 654.3701100406801 662.0779402452335 0 0 0
454 1 1 0 660.6732560904635 661.8678188725423 661.1089076617588 0 0 0
455 1 1 0 660.8662461607355 660.49935768742 661.1318827185321 0 0 0