LAMMPS data file via write_data, version 2 Aug 2023, timestep = 50000, units = metal

14672 atoms
1 atom types

641.5217193602118 722.658280639776 xlo xhi
641.9677491378638 722.9212508621542 ylo yhi
642.0154581939425 722.8735418060755 zlo zhi

Masses

1 12.0107

Atoms # full

1 1 1 0 648.4405730415426 647.9673105294246 652.1587727010402 0 0 0
2 1 1 0 649.220047459588 648.9640739280461 651.5890545491152 0 0 0
3 1 1 0 650.0255014499654 649.9151138312749 652.3193510595812 0 0 0
4 1 1 0 650.842018600449 650.7807721199375 650.3874026565769 0 0 0
5 1 1 0 650.1431750815744 651.1845485194882 651.6107787532043 0 0 0
6 1 1 0 650.2554293056309 652.3203202958399 652.4020985166215 0 0 0
7 1 1 0 652.3082956517258 650.6350799124726 650.5040020907074 0 0 0
8 1 1 0 649.1075842561653 649.0781543919094 650.1421378636007 0 0 0
9 1 1 0 649.9717229503838 649.9540818624147 649.4614565624938 0 0 0
10 1 1 0 652.3446726724455 649.1980278902615 648.4534337425134 0 0 0
11 1 1 0 650.0002190351549 649.8594810724385 647.8707754280123 0 0 0
12 1 1 0 651.3247893849904 649.1082236795244 647.5686654109999 0 0 0
13 1 1 0 652.7513779947626 649.2967539373179 645.5723033123709 0 0 0
14 1 1 0 652.9501802662973 648.9577445259256 644.1798817976925 0 0 0
15 1 1 0 647.1746491175065 647.6164423147126 651.637174426051 0 0 0
16 1 1 0 645.9777242931364 647.3231203569834 652.3961956404581 0 0 0
17 1 1 0 651.5209260654129 648.9082690878317 646.2017232898047 0 0 0
18 1 1 0 647.119870795512 647.670078471864 650.2319900055726 0 0 0
19 1 1 0 648.1298263609864 648.3454022699723 649.472783202691 0 0 0
20 1 1 0 646.7590963710671 652.6339086379709 657.4475470389198 0 0 0
21 1 1 0 648.00236662708 651.4473497857955 655.8095523399509 0 0 0
22 1 1 0 648.0473119137337 652.2956878834946 656.9205174774453 0 0 0
23 1 1 0 650.7146590295819 652.5730246824062 657.0835020255207 0 0 0
24 1 1 0 649.2634797383447 652.828286754376 657.4773733491346 0 0 0
25 1 1 0 646.6310970784236 653.4824610974877 658.572231643711 0 0 0
26 1 1 0 649.0643998327953 653.6062738976115 658.6993898695013 0 0 0
27 1 1 0 644.8395951774856 646.8503858569208 650.3292386877041 0 0 0
28 1 1 0 645.9294140231672 647.2683493617685 649.5789115764703 0 0 0
29 1 1 0 647.969951887339 648.3251282057817 648.0524720863091 0 0 0
30 1 1 0 648.8872777977685 648.9384866486859 647.2155339964482 0 0 0
31 1 1 0 651.5754094429819 652.4723694520735 658.2601085623493 0 0 0
32 1 1 0 647.7915350063139 653.9287698428403 659.1645355227724 0 0 0
33 1 1 0 650.3616945371429 648.723117436551 645.3881393770321 0 0 0
34 1 1 0 652.9112274302806 650.5899552467309 649.0723221971316 0 0 0
35 1 1 0 652.2937942362256 651.6479720838132 648.0400905474822 0 0 0
36 1 1 0 653.0274244104597 650.2120719054105 651.6411161596908 0 0 0
37 1 1 0 658.0250003103613 650.0158635318403 648.0674368451903 0 0 0
38 1 1 0 655.2706812042339 649.3957451133031 649.3807174578728 0 0 0
39 1 1 0 657.8757690054625 648.752290941627 649.9754268749745 0 0 0
40 1 1 0 656.8659025301888 647.7271330138965 650.1503068367052 0 0 0
41 1 1 0 657.4701573340853 649.9695986016814 649.3605251326488 0 0 0
42 1 1 0 657.3160674523232 646.728357863289 651.0627675070652 0 0 0
43 1 1 0 655.4900620168191 648.0983982033283 650.1422995253112 0 0 0
44 1 1 0 656.2128263566993 650.4136945165396 650.0657980118605 0 0 0
45 1 1 0 654.5076587338675 651.1657153479053 645.3916533253195 0 0 0
46 1 1 0 655.113294350576 647.4999271617373 646.3673832080243 0 0 0
47 1 1 0 655.2877262047779 648.8440229076779 646.8057495019239 0 0 0
48 1 1 0 656.3850029387517 649.6644416436086 646.2279314104459 0 0 0
49 1 1 0 655.8374974866737 650.859607930357 645.2883126902002 0 0 0
50 1 1 0 655.4016865805361 647.1601512524852 644.9906389839014 0 0 0
51 1 1 0 645.4282256714522 653.9522040955115 659.0606804690478 0 0 0
52 1 1 0 654.224958828886 649.8565370606904 648.592793074633 0 0 0
53 1 1 0 652.5707263703636 651.4403129356707 646.6758728011308 0 0 0
54 1 1 0 653.5401954835284 650.4107883438277 646.2434607653835 0 0 0
55 1 1 0 654.2993005621596 649.6327543914268 647.2567617100394 0 0 0
56 1 1 0 653.5052039957944 653.6891337204346 658.7447803140398 0 0 0
57 1 1 0 652.5525534664289 654.1182563735181 659.6911639205699 0 0 0
58 1 1 0 651.3411926127344 653.375574352825 659.3822587324455 0 0 0
59 1 1 0 655.4496139625085 657.4308221166076 660.0444750774452 0 0 0
60 1 1 0 652.4332244122302 655.2767007289866 660.53343052662 0 0 0
61 1 1 0 654.7532765246816 656.2433442415362 660.1302075692554 0 0 0
62 1 1 0 653.4633211860709 656.2673503646245 660.7860361268274 0 0 0
63 1 1 0 651.1966153907913 649.6979847481559 653.169236635749 0 0 0
64 1 1 0 654.3848264712936 649.7012519170625 651.5706530172217 0 0 0
65 1 1 0 650.0001124396731 654.8423149088562 660.58852178069 0 0 0
66 1 1 0 650.1323280946276 653.9161999783717 659.5813874512298 0 0 0
67 1 1 0 648.7456122750623 655.0420043690111 661.1214061793712 0 0 0
68 1 1 0 647.6328027815039 654.5985176021437 660.423532477937 0 0 0
69 1 1 0 650.9309401666598 656.4931192672602 662.098762886237 0 0 0
70 1 1 0 651.1285383854988 655.5408644414381 661.0970844838623 0 0 0
71 1 1 0 648.6253205963266 655.7983874995573 662.2545197333327 0 0 0
72 1 1 0 649.7271182413066 656.516124654298 662.7890602486018 0 0 0
73 1 1 0 654.872108714111 648.3155258737163 651.435053815703 0 0 0
74 1 1 0 655.7908746931223 647.9802000762384 652.5240208146009 0 0 0
75 1 1 0 656.8253231374422 646.9871737007431 652.3844322915204 0 0 0
76 1 1 0 657.7388288140164 646.6716453820959 653.4722575436457 0 0 0
77 1 1 0 645.2914914961432 654.84437670185 660.1581777612074 0 0 0
78 1 1 0 646.4260382955016 655.0662598979086 660.9406418012986 0 0 0
79 1 1 0 644.0771137354843 655.3099877674729 660.626058793986 0 0 0
80 1 1 0 643.8951345107166 655.9272422235691 661.8795350398902 0 0 0
81 1 1 0 647.3871807999651 656.0529564398634 662.8514324773097 0 0 0
82 1 1 0 646.2589037339477 655.6958505060418 662.172463257321 0 0 0
83 1 1 0 645.0252027315024 656.2112798752729 662.6680863710055 0 0 0
84 1 1 0 645.8846795950352 647.1133988998919 648.1760906319215 0 0 0
85 1 1 0 644.1958673822934 645.4671270486423 648.4389785308681 0 0 0
86 1 1 0 646.9886596743586 647.5554908736859 647.4008326422405 0 0 0
87 1 1 0 658.7072900966205 648.881821251095 645.9813832900645 0 0 0
88 1 1 0 659.0406833929025 646.4304397982404 648.2495644086171 0 0 0
89 1 1 0 658.3464862980234 645.045647276283 648.1911868567358 0 0 0
90 1 1 0 659.2143735881183 647.7752330854426 648.3428086359288 0 0 0
91 1 1 0 658.843568625192 648.8627610399833 647.466969309088 0 0 0
92 1 1 0 659.800248277508 647.3901370968003 650.9368859146217 0 0 0
93 1 1 0 659.1783152263588 645.4362474446391 649.590206628356 0 0 0
94 1 1 0 660.3200391238466 644.9590669345006 650.5994532496793 0 0 0
95 1 1 0 658.7510042488717 646.1668641369057 650.9561735656579 0 0 0
96 1 1 0 659.1876509784222 648.2248579265672 649.6873692211434 0 0 0
97 1 1 0 661.4854555177304 645.5118662566282 651.3050300514093 0 0 0
98 1 1 0 659.0534582695647 645.1131482261183 652.1440738299716 0 0 0
99 1 1 0 655.3317085822483 649.3750903130062 642.7857226737752 0 0 0
100 1 1 0 656.521527107997 648.8491008293964 643.4332272855079 0 0 0
101 1 1 0 657.6543316098844 649.636222348568 643.254894548713 0 0 0
102 1 1 0 654.0540544770017 648.86898772902 643.2740979087268 0 0 0
103 1 1 0 644.9179810482215 656.7958000020448 663.9294665022858 0 0 0
104 1 1 0 657.3092137533048 648.6040641665843 645.6106374929019 0 0 0
105 1 1 0 656.5552492499238 647.98852686944 644.5364970897293 0 0 0
106 1 1 0 657.9046181925006 650.92788234755 644.0855403927682 0 0 0
107 1 1 0 658.9995205987906 651.7694748142409 643.3796226841416 0 0 0
108 1 1 0 658.3567698148896 650.8316282119572 645.7181251072047 0 0 0
109 1 1 0 643.6511971524931 657.090937699563 664.4508447231693 0 0 0
110 1 1 0 642.5659610618336 656.7469901049856 663.6289116891859 0 0 0
111 1 1 0 654.0867348351826 647.7687899706584 642.2893581883477 0 0 0
112 1 1 0 652.9911088383935 657.5141491186348 661.3378926009643 0 0 0
113 1 1 0 651.3834930599684 658.7649557264534 662.6755340780717 0 0 0
114 1 1 0 651.844112132718 657.5010843579339 662.1990277335786 0 0 0
115 1 1 0 650.2227446574855 658.7817967566626 663.4898596002781 0 0 0
116 1 1 0 649.4681761033447 657.5918161461669 663.619924563538 0 0 0
117 1 1 0 649.6952162309707 659.9614399174766 663.9574921510415 0 0 0
118 1 1 0 648.3034366224207 657.7217400406456 664.3471742364361 0 0 0
119 1 1 0 647.2664740635412 656.8364362457895 663.9902616989052 0 0 0
120 1 1 0 647.7334007911112 658.9066982411217 665.0120075632645 0 0 0
121 1 1 0 648.6174447084867 660.0453106276804 664.8672873943301 0 0 0
122 1 1 0 646.1390160232697 658.5233296669198 665.2337492943035 0 0 0
123 1 1 0 646.048348097934 657.2903349887307 664.4521533229573 0 0 0
124 1 1 0 644.8080781328047 658.6986870148863 665.8411173964936 0 0 0
125 1 1 0 644.9104285131714 646.3191169459542 647.5921521513687 0 0 0
126 1 1 0 644.7507202353813 647.015678935635 651.7561609122382 0 0 0
127 1 1 0 643.9509466940135 644.1702168481069 647.9369629314899 0 0 0
128 1 1 0 659.4398371143872 649.872414092288 644.9716080335419 0 0 0
129 1 1 0 657.4983446472265 650.5102621743592 646.8022652397975 0 0 0
130 1 1 0 643.7831084212718 646.1306119504669 649.620483820361 0 0 0
131 1 1 0 649.9436171702542 664.8755077726672 643.5779417032709 0 0 0
132 1 1 0 648.6805853515099 662.5179037031888 644.6188948702721 0 0 0
133 1 1 0 648.6130335306872 661.2239366934858 665.6341637641983 0 0 0
134 1 1 0 654.923923097832 658.7244505847514 660.4063531831835 0 0 0
135 1 1 0 655.7214064472621 659.9174494132649 660.2640462487711 0 0 0
136 1 1 0 656.8636349193536 663.1137256559748 660.4768975560715 0 0 0
137 1 1 0 659.825955607077 650.46972289803 643.7229160783999 0 0 0
138 1 1 0 651.0300762391807 652.717389080794 653.4417561931276 0 0 0
139 1 1 0 643.5250530142221 646.8692417997518 652.3638107772483 0 0 0
7834 1 1 0 645.559358055544 642.2033186607412 679.3269952690035 0 1 0
141 1 1 0 642.4537213112674 645.9750526914279 651.6668837736627 0 0 0
142 1 1 0 642.4775144923368 646.2098373425483 650.1619883774387 0 0 0
143 1 1 0 655.9185066352313 662.2887421843893 661.0890965381101 0 0 0
144 1 1 0 646.7596698016563 651.1823617311841 655.1648392532467 0 0 0
2777 1 1 0 670.2115816440315 670.262289789445 642.6170922142028 0 0 1
146 1 1 0 646.4451019943153 661.9924709037167 644.3201194618558 0 0 0
147 1 1 0 648.40245233223 663.7999800114045 645.2228176163549 0 0 0
148 1 1 0 653.6867490522766 658.6775481859912 661.1311627038351 0 0 0
149 1 1 0 655.1515211386755 661.1199774701229 660.7249919268932 0 0 0
150 1 1 0 648.4179595342126 660.2079826835231 644.5961611908826 0 0 0
151 1 1 0 652.4568349784882 650.3979270399178 652.9878625590657 0 0 0
152 1 1 0 651.8422449982047 652.2460586156807 654.4280966595284 0 0 0
153 1 1 0 652.9500622924352 651.4242971856635 653.992726514241 0 0 0
154 1 1 0 651.7003084464109 652.6189882419984 655.8747977892539 0 0 0
155 1 1 0 643.46843356267 657.9562007821062 665.6514479736454 0 0 0
156 1 1 0 645.5223371270973 652.1026951320966 656.9692909163075 0 0 0
157 1 1 0 645.5506472065854 651.1511430770836 655.9063990151465 0 0 0
158 1 1 0 644.2172075352531 648.1537043856216 657.8176964741627 0 0 0
159 1 1 0 646.0237484628811 662.9159887607435 645.3290130703335 0 0 0
160 1 1 0 642.4199954214437 644.2264645428423 659.9653182592532 0 0 0
161 1 1 0 649.139597225956 665.0141948547673 644.8246976753389 0 0 0
162 1 1 0 647.0319761539527 663.9077172744321 645.6620153921456 0 0 0
163 1 1 0 656.0619500778528 648.9977280340738 653.4451255736574 0 0 0
164 1 1 0 653.0911837589401 659.9185039678038 661.4104141893584 0 0 0
165 1 1 0 655.3241282589925 663.0219717153678 662.1318574112343 0 0 0
166 1 1 0 653.7644065887007 661.1063153691798 661.070237909703 0 0 0
167 1 1 0 650.940118335559 652.1132262096626 648.2571210356977 0 0 0
168 1 1 0 650.6359311864275 653.4864042077364 648.2237548422036 0 0 0
169 1 1 0 649.9680860493067 657.7864109506111 645.859875618301 0 0 0
170 1 1 0 650.0510470030149 658.5184550290643 644.7222429537615 0 0 0
171 1 1 0 649.760514066945 659.8684945399812 644.4095617862376 0 0 0
172 1 1 0 655.5904896532417 650.6028332723845 651.3847392354284 0 0 0
173 1 1 0 653.0116948270646 652.7526054531087 656.4768897203746 0 0 0
174 1 1 0 644.2218619072274 653.2875620533296 658.6849111453886 0 0 0
175 1 1 0 644.3019387794643 652.4220856646874 657.568117743585 0 0 0
176 1 1 0 643.1010163573228 647.2558126520855 653.6011900686818 0 0 0
177 1 1 0 643.464208610572 647.014186795312 657.4871123403115 0 0 0
178 1 1 0 651.9239973458347 659.948165361144 662.1169491530554 0 0 0
179 1 1 0 649.0691736054373 648.5642231834651 645.8689345497247 0 0 0
180 1 1 0 650.0816921536307 651.3565562917232 647.3110879463508 0 0 0
181 1 1 0 650.2256033604725 654.2569753278373 647.152798328487 0 0 0
182 1 1 0 649.9198580018082 653.5629724186649 645.9435025907006 0 0 0
183 1 1 0 649.9333099772361 655.595834295058 647.1721515838116 0 0 0
184 1 1 0 649.930586232353 656.3744085862393 645.9982326953259 0 0 0
1131 1 1 0 681.2314236456826 642.8849465910954 643.7753804524807 0 0 0
186 1 1 0 661.1440591799075 646.8451735960712 651.6959233129492 0 0 0
187 1 1 0 659.4310249450133 648.5962014486712 651.7591503410572 0 0 0
188 1 1 0 661.2930074298074 647.6528182042342 652.9057514791542 0 0 0
189 1 1 0 660.08967332654 648.438375747407 652.9649745502123 0 0 0
190 1 1 0 662.2239326856999 648.0577054885998 653.8928769255057 0 0 0
191 1 1 0 658.4580015872474 649.6676741082805 651.7409149125044 0 0 0
192 1 1 0 656.0968085060917 650.5803959741993 652.8601592709225 0 0 0
193 1 1 0 654.2551191308406 651.8242028212987 654.5889766621244 0 0 0
194 1 1 0 657.6674975825933 650.0939986461551 652.838261822507 0 0 0
195 1 1 0 658.2825758858338 650.035597349594 654.0437868184853 0 0 0
196 1 1 0 659.3173279717267 648.8087397545726 654.2116697986339 0 0 0
197 1 1 0 660.5011524978232 649.5297113519132 654.9248620801803 0 0 0
198 1 1 0 661.8070137068586 649.2082363927598 654.633198747531 0 0 0
199 1 1 0 662.7893294564017 650.05823327848 655.25631098178 0 0 0
200 1 1 0 660.1715070451489 650.4773990212273 655.8346250911952 0 0 0
201 1 1 0 661.0025517527671 652.3340029077223 657.2501745818197 0 0 0
202 1 1 0 661.2132952691243 651.413190444027 656.1906309212146 0 0 0
203 1 1 0 662.398720998118 651.4237228739862 655.4521001997043 0 0 0
204 1 1 0 655.6643506098002 651.4288922901989 654.174926642371 0 0 0
205 1 1 0 654.2508436191172 652.637554074194 655.7916475371486 0 0 0
206 1 1 0 655.4569838318274 653.1801587434185 656.5009154514427 0 0 0
207 1 1 0 657.8840707565864 650.7871070626412 655.1368890760132 0 0 0
208 1 1 0 656.7398279592218 651.7073799643325 655.1093670109003 0 0 0
209 1 1 0 656.668959380003 652.5877396923026 656.2832534585332 0 0 0
210 1 1 0 657.6777200818257 652.7805314903729 657.307890825978 0 0 0
211 1 1 0 658.8810870106761 650.9957770499349 656.1033105730825 0 0 0
212 1 1 0 659.8328754912615 652.1274397301618 657.9583899662032 0 0 0
213 1 1 0 658.6941269539243 651.7951252773319 657.216688530302 0 0 0
214 1 1 0 661.9228286178086 653.3891170057111 657.4548786875032 0 0 0
215 1 1 0 652.9539912808083 652.7116624440866 657.8734266137834 0 0 0
216 1 1 0 657.7625293137907 653.6948598135721 658.400145754351 0 0 0
217 1 1 0 661.1574623548752 652.9611075275942 659.7850626541644 0 0 0
218 1 1 0 661.1145406623731 653.7385631764816 661.102081033822 0 0 0
219 1 1 0 659.8158897326781 652.7180851399725 659.1992892442045 0 0 0
220 1 1 0 658.8880408330232 653.7769428721758 659.2718820506068 0 0 0
221 1 1 0 659.4812569120312 654.9277170948029 659.921023674266 0 0 0
222 1 1 0 660.6843984724552 655.0240656969971 660.6657967158325 0 0 0
223 1 1 0 654.771222983531 654.196352577654 658.7214410259196 0 0 0
224 1 1 0 655.4436377716677 655.2025909436583 659.6092028646906 0 0 0
225 1 1 0 655.6189702173336 654.0683317886883 657.5868896844233 0 0 0
226 1 1 0 656.7544180820133 657.3013450265746 659.5926517494597 0 0 0
227 1 1 0 656.7122499188059 654.9322846513214 658.6158313215951 0 0 0
228 1 1 0 657.5301636204914 656.2257898272957 659.1830989399062 0 0 0
229 1 1 0 658.9438316867427 656.173700420992 659.5984084275719 0 0 0
230 1 1 0 657.5171057290588 658.4524124143452 659.8681870446808 0 0 0
231 1 1 0 659.7600250839523 657.3232010603537 659.7417378894254 0 0 0
232 1 1 0 658.9475712545282 658.4426304918928 659.7554372000395 0 0 0
233 1 1 0 643.136715694257 648.3547436445701 654.424868420228 0 0 0
234 1 1 0 657.1274737056236 664.4499770360374 661.3357145901159 0 0 0
235 1 1 0 656.779888196537 665.9288204374076 662.1036027489621 0 0 0
236 1 1 0 656.098658443948 664.1116547396156 662.6335437638512 0 0 0
237 1 1 0 644.2792974437277 665.346991268699 643.8433060993698 0 0 0
238 1 1 0 644.7348408593946 663.5604603118866 645.2126861220328 0 0 0
239 1 1 0 649.3557459945125 667.1859463397822 644.0299102825606 0 0 0
240 1 1 0 648.4729059357909 666.504329744556 645.1685839370011 0 0 0
241 1 1 0 647.5106499144722 667.6763853256529 644.585119487623 0 0 0
242 1 1 0 646.3741738331347 667.3301251325337 646.5013665667401 0 0 0
243 1 1 0 647.1149516169502 666.294828511913 645.9498151828129 0 0 0
244 1 1 0 646.4750022221007 665.1773699040496 645.6025704046639 0 0 0
245 1 1 0 644.9599538918877 666.9474851889639 646.9282788297907 0 0 0
246 1 1 0 657.0047447413339 659.7352685751096 659.7098218367424 0 0 0
247 1 1 0 658.0884463598738 660.571696806752 659.1619739194133 0 0 0
248 1 1 0 659.26581632436 659.6704237077016 659.2218141903427 0 0 0
249 1 1 0 646.5482733451363 667.4455095705974 643.6341793771954 0 0 0
250 1 1 0 658.6802267957173 661.753517541802 658.579521089465 0 0 0
251 1 1 0 657.0188448719539 663.456061066134 659.0441378487435 0 0 0
252 1 1 0 658.2607520493593 663.0509701132333 658.4555357105264 0 0 0
253 1 1 0 656.6162826230714 664.7687811652949 658.7787370164882 0 0 0
254 1 1 0 658.8842289130837 665.5656024557762 658.3187368188813 0 0 0
255 1 1 0 657.7216804574707 665.5831272339343 659.1316700718558 0 0 0
256 1 1 0 659.2470350711312 664.1581074216783 658.0738867578813 0 0 0
257 1 1 0 660.1067084540061 661.5205884221529 658.2691516972674 0 0 0
258 1 1 0 660.4398211985533 660.2368782317362 658.7872034475274 0 0 0
259 1 1 0 661.6243194838754 659.8917027169454 659.3904875861722 0 0 0
260 1 1 0 662.3284161829398 661.0044765205361 659.8617882916079 0 0 0
261 1 1 0 660.9913180607994 662.5689790282071 658.4004616393606 0 0 0
262 1 1 0 661.9926414056231 662.3463139782792 659.4126713572622 0 0 0
263 1 1 0 660.6318363522204 663.8990361316017 658.1529695690576 0 0 0
264 1 1 0 661.5218924195324 664.9777496680259 658.3059687661707 0 0 0
265 1 1 0 662.6398952919367 664.7536842011975 659.1168584296485 0 0 0
266 1 1 0 662.7508348936238 663.4849244971049 659.7418959813914 0 0 0
267 1 1 0 663.6234756231878 663.3895087430992 660.7807521263371 0 0 0
268 1 1 0 664.7332560207714 665.2748677667785 660.065488706573 0 0 0
269 1 1 0 659.8378425770495 666.6132495177442 658.543497798902 0 0 0
270 1 1 0 661.1233346375312 666.298509987359 658.1055645215054 0 0 0
271 1 1 0 663.0801687763287 667.1243695213442 659.2343048481737 0 0 0
272 1 1 0 663.5718731883825 665.7765158140467 659.4952885111371 0 0 0
273 1 1 0 663.3893842222564 661.0526403632333 660.7934217535825 0 0 0
274 1 1 0 663.4737754394532 662.236299224351 661.5627904019282 0 0 0
275 1 1 0 665.9485756025229 663.065776762656 660.3786815770785 0 0 0
276 1 1 0 664.8962551279916 663.9694243798633 660.5699123309711 0 0 0
277 1 1 0 662.1833728099997 667.22344785821 658.1074088576486 0 0 0
278 1 1 0 643.00665742203 665.9451472461376 643.7018541553949 0 0 0
279 1 1 0 654.2894604366741 646.4709695283032 642.7003608431394 0 0 0
280 1 1 0 657.9940150503242 647.8207680371419 654.3124890121316 0 0 0
281 1 1 0 656.8542106740567 648.599911309108 654.582305113034 0 0 0
5985 1 1 0 681.0555902248706 642.1212278509635 680.5077653581559 0 0 0
283 1 1 0 649.4265525071249 662.3793962530882 665.3684746944947 0 0 0
284 1 1 0 642.0521930259775 658.1272451953084 666.1720061806019 0 0 0
285 1 1 0 650.3142875035891 661.1278548284562 663.4670337385253 0 0 0
286 1 1 0 650.0253318583565 662.369402389651 664.0791709506833 0 0 0
287 1 1 0 651.2811738343873 661.1737114058824 662.4737815746112 0 0 0
288 1 1 0 653.4321104686713 664.5573170275577 662.1419505203612 0 0 0
289 1 1 0 654.2545113861969 665.5424542778655 662.6785129404435 0 0 0
290 1 1 0 653.983765700067 666.8495899614187 662.2575190607498 0 0 0
291 1 1 0 650.5849152500358 663.5881972562687 663.6165693102524 0 0 0
292 1 1 0 650.7456481681194 664.6853663813778 664.4554876784177 0 0 0
293 1 1 0 651.0853245613741 665.9303744799417 663.8921749630571 0 0 0
294 1 1 0 652.6338567985513 667.1670518640119 662.5664123510047 0 0 0
295 1 1 0 652.046915749258 664.7662944118007 662.1390915607656 0 0 0
296 1 1 0 651.7083212760728 666.0283383413233 662.6354505265515 0 0 0
297 1 1 0 651.3294138189736 663.5957951083185 662.4273074541577 0 0 0
298 1 1 0 653.9963186827854 663.3122110718707 661.8710225003106 0 0 0
299 1 1 0 653.1679460158927 662.2591286279034 661.5681733533032 0 0 0
300 1 1 0 651.8338364681791 662.3471458479885 662.041758763036 0 0 0
301 1 1 0 661.8603523776554 645.0385472345763 666.3626613185966 0 0 0
302 1 1 0 661.6258975303789 646.3701649683662 666.5757776123044 0 0 0
303 1 1 0 662.5750849618623 644.5818965877559 665.2451557243114 0 0 0
304 1 1 0 662.2724715981537 647.274068667451 665.7603017531538 0 0 0
305 1 1 0 662.9656188428061 645.4769981932777 664.270903613202 0 0 0
306 1 1 0 662.9000575223796 646.8547526765249 664.6080243336131 0 0 0
307 1 1 0 663.5815105325826 645.1019163484809 663.0833079977738 0 0 0
308 1 1 0 664.169803153477 646.1381110349489 662.298027524126 0 0 0
309 1 1 0 663.9780560118387 647.4679301419328 662.62588008954 0 0 0
310 1 1 0 663.5197591662362 647.8415325643879 663.8427186200576 0 0 0
311 1 1 0 661.9961394125735 649.0922989200798 667.4183236073254 0 0 0
312 1 1 0 662.3317178721611 648.6228894292364 666.1674124281499 0 0 0
313 1 1 0 662.6224114436852 649.6062743593052 665.2342368133804 0 0 0
314 1 1 0 663.2435846350887 649.23792744917 664.0906473649143 0 0 0
315 1 1 0 663.9457262123256 650.2479472649054 663.3889635318917 0 0 0
316 1 1 0 662.4749918991525 651.3290719423844 666.7976953826822 0 0 0
317 1 1 0 662.355203097989 650.9772459524504 665.4472441123756 0 0 0
318 1 1 0 662.4095770423138 651.834773587854 664.2439645282075 0 0 0
319 1 1 0 663.627593686364 651.6031238532054 663.5198386643027 0 0 0
320 1 1 0 661.5273214621851 652.1573271968774 663.0168661373455 0 0 0
321 1 1 0 661.904095395055 653.3344414595902 662.1931164251388 0 0 0
322 1 1 0 664.3869908823679 648.5488001022643 661.6798824399058 0 0 0
323 1 1 0 664.6941989102318 649.8559492068555 662.3302595984594 0 0 0
324 1 1 0 664.1269701456357 652.5439508691829 662.6111380406907 0 0 0
325 1 1 0 663.2974423312581 653.5187966590429 662.0233148188356 0 0 0
326 1 1 0 663.666674655665 654.4104240789866 660.7821262153483 0 0 0
327 1 1 0 663.1157184218251 655.837928002975 660.6044846319635 0 0 0
328 1 1 0 661.7192863675394 656.0305533478926 660.409626310054 0 0 0
329 1 1 0 661.2141797962304 657.3009069954751 659.9422862119277 0 0 0
330 1 1 0 662.1521399868845 658.4679883543128 659.718841847943 0 0 0
331 1 1 0 655.3591742280084 665.0752495925996 663.3835035059611 0 0 0
332 1 1 0 655.0499151919365 667.6552340984844 661.869254122777 0 0 0
333 1 1 0 656.2211834419846 667.0360995852843 661.3899859363148 0 0 0
334 1 1 0 657.2354181042846 667.8144650869087 660.7187226825545 0 0 0
335 1 1 0 659.388874518691 665.9191414710642 661.779337196088 0 0 0
336 1 1 0 660.7411624210091 665.5313627280697 661.6017777608837 0 0 0
337 1 1 0 661.6883253503674 666.4351075274357 662.0069540781186 0 0 0
338 1 1 0 658.3140469853695 667.0773403146992 660.2839238623101 0 0 0
339 1 1 0 658.2752272151306 665.453357867195 660.7195124604553 0 0 0
340 1 1 0 659.4672145847633 667.5559401585957 659.5794264308997 0 0 0
341 1 1 0 650.6300061813823 648.901746338241 644.0629081039542 0 0 0
342 1 1 0 650.0740689572606 655.6659060329326 644.7976740676309 0 0 0
343 1 1 0 662.9275896555507 652.6851105560839 655.3097341833821 0 0 0
344 1 1 0 662.7046949450937 653.7634698110376 656.3011316266675 0 0 0
345 1 1 0 662.077452795697 653.7475059890689 658.8048477798775 0 0 0
346 1 1 0 665.2248097352322 652.131641515881 661.8488335946354 0 0 0
347 1 1 0 663.6077430592466 658.2234848379987 659.8988511508538 0 0 0
348 1 1 0 664.0402560322434 656.8078819307142 660.1753682605341 0 0 0
349 1 1 0 642.6199145210276 656.224251019641 662.35947255926 0 0 0
350 1 1 0 642.309433550749 645.3558775536353 658.9115569492784 0 0 0
351 1 1 0 658.5021774066352 645.4892512760218 653.3797478643871 0 0 0
352 1 1 0 654.4952479407573 646.1507111180808 644.2202871564364 0 0 0
353 1 1 0 659.2543089970455 666.9034113893907 662.8258476192885 0 0 0
354 1 1 0 642.1077202397389 645.3887234244268 647.4443115884206 0 0 0
355 1 1 0 663.3944332215837 653.8224755337585 659.3688375640039 0 0 0
356 1 1 0 665.4562963557512 650.7645627696553 661.6738829066356 0 0 0
357 1 1 0 665.2056701881414 654.2516408003415 660.7315123456027 0 0 0
358 1 1 0 642.9376089387533 654.8052531798529 660.0295491373124 0 0 0
359 1 1 0 643.1069699011576 653.4396316311553 659.5054031505359 0 0 0
2139 1 1 0 651.1999915765638 682.3358952158862 663.132396682261 0 0 0
2743 1 1 0 672.4067234110379 680.2478814094145 642.1312688649318 0 0 0
362 1 1 0 642.8754578486341 647.1317977954516 656.1913171503362 0 0 0
363 1 1 0 659.8300257022632 643.9449068411012 651.5924974438201 0 0 0
364 1 1 0 646.9381212344969 647.3900386819072 645.9617764354679 0 0 0
365 1 1 0 644.7374503771172 646.3152242028108 646.1523945861354 0 0 0
366 1 1 0 644.8923947280681 643.329965395515 647.3616188035901 0 0 0
374 1 1 0 641.6163533270743 654.8609232537741 660.7105884191119 0 0 0
368 1 1 0 663.6142389417449 654.838682096221 656.4327668227952 0 0 0
369 1 1 0 665.8633114161123 653.0304035187967 660.9965636525515 0 0 0
370 1 1 0 665.4195090891197 656.4639959367204 659.7983312341507 0 0 0
371 1 1 0 664.7012737378883 659.2209859296375 659.8940016594499 0 0 0
372 1 1 0 664.6264070833739 660.5700578314317 660.3572247403882 0 0 0
5657 1 1 0 673.6276955480837 647.645489316467 681.3563530346064 0 0 0
7261 1 1 0 681.7748574084145 679.6000810775115 670.6161567960174 0 0 0
375 1 1 0 642.0123488998682 646.2943075205425 661.3586152385806 0 0 0
5863 1 1 0 681.7997721516692 661.044789858489 678.8042405352085 0 0 0
377 1 1 0 642.4658449271575 645.9426212170214 655.5125518819427 0 0 0
378 1 1 0 648.050325260836 647.8073427474192 645.189599622081 0 0 0
379 1 1 0 664.869840222194 645.7336288683404 661.2104911219191 0 0 0
380 1 1 0 665.9958842834039 655.1914266621609 660.1112840077208 0 0 0
381 1 1 0 666.0456257448797 658.8132013933714 659.5862769751985 0 0 0
382 1 1 0 665.6307241879975 661.5959178419822 660.1210728995178 0 0 0
383 1 1 0 647.7622278450095 661.4432647294675 644.6352401367633 0 0 0
11294 1 1 0 643.364555160317 672.1529951424761 642.3198173161707 0 0 1
385 1 1 0 662.2531288871614 644.4316292409512 651.8951361686363 0 0 0
386 1 1 0 656.6352676658526 644.815907398665 646.3192323120658 0 0 0
387 1 1 0 660.6485495523793 642.817443893824 651.4353845002565 0 0 0
388 1 1 0 658.2327193918086 666.8906751751698 663.8307368249696 0 0 0
389 1 1 0 650.3040828598781 652.0451341749294 645.848047921014 0 0 0
390 1 1 0 649.7816009831497 654.3101402775934 644.7248136589133 0 0 0
391 1 1 0 642.2804466303322 645.8904017014775 646.1882562945744 0 0 0
392 1 1 0 664.8448717899375 654.6037240274142 657.0323044234437 0 0 0
393 1 1 0 662.1079759802519 649.5377564897843 658.9404691421752 0 0 0
394 1 1 0 662.0222630795386 648.3795768503979 658.1241860201446 0 0 0
395 1 1 0 662.9804620070099 650.4842646108278 658.4543384851349 0 0 0
396 1 1 0 663.1164451221194 651.554631437874 659.265844209462 0 0 0
397 1 1 0 663.9875228497834 652.5735069492922 658.9389662552179 0 0 0
398 1 1 0 661.9730808011429 651.7548183022141 660.0879387052414 0 0 0
399 1 1 0 662.1026957685266 649.5249378253393 660.4466512147524 0 0 0
400 1 1 0 661.6402533783203 650.7359897782612 660.9598613028691 0 0 0
401 1 1 0 661.0459508969514 651.0547291853633 662.2182920821341 0 0 0
402 1 1 0 666.336501799525 657.4446064765234 659.3788247642372 0 0 0
403 1 1 0 642.2931742579838 644.3350901293006 651.674069733303 0 0 0
404 1 1 0 653.5236993569172 644.2159412434113 642.4236372572756 0 0 0
405 1 1 0 657.5141513471457 644.3249531978838 647.4035820718892 0 0 0
406 1 1 0 655.6962734124246 644.1546206398776 645.5039472815885 0 0 0
407 1 1 0 654.9725376046351 644.6782687953922 644.3829052560594 0 0 0
408 1 1 0 662.3469356161412 650.3847773916241 667.8935018703053 0 0 0
409 1 1 0 657.1155741765258 666.1434653266833 663.5039229958504 0 0 0
410 1 1 0 655.9916848189616 666.0097088491482 664.4280339397169 0 0 0
411 1 1 0 651.8530584295447 651.8984639085533 645.5943797856462 0 0 0
412 1 1 0 643.5411603958761 645.9809368755942 645.5276426548656 0 0 0
367 1 1 0 642.412981442495 643.8935386721026 647.800651131555 0 0 0
414 1 1 0 662.5945264227321 647.2304057951312 658.8910343772941 0 0 0
415 1 1 0 663.349617303247 648.8316104688848 660.575728679826 0 0 0
416 1 1 0 644.0532401034714 649.3607998620073 654.6721025904886 0 0 0
417 1 1 0 654.3363050745745 643.7559699266567 643.5573573952064 0 0 0
418 1 1 0 642.3104012796567 643.3302131445153 650.6264374152129 0 0 0
1191 1 1 0 674.9635933278574 642.0181874632445 659.7449133719432 0 0 0
420 1 1 0 645.016117494974 643.3216307753003 645.9493400717997 0 0 0
421 1 1 0 661.1293491394272 646.9413397798843 667.7747394719272 0 0 0
422 1 1 0 655.8144700410228 666.9992465569528 665.3042524133432 0 0 0
423 1 1 0 645.8536704853619 646.6884647060671 645.442139246143 0 0 0
424 1 1 0 650.3325405097983 656.3689489082757 643.6287654934164 0 0 0
10064 1 1 0 668.4078326500846 668.1329571542603 642.1943096437424 0 0 1
426 1 1 0 664.1216064549016 649.9341493466809 657.6539953028397 0 0 0
427 1 1 0 662.610781525927 648.318679848202 656.8277548546233 0 0 0
428 1 1 0 664.8513480543813 652.3248945872264 657.8713036617992 0 0 0