LAMMPS data file via write_data, version 2 Aug 2023, timestep = 50000, units = metal

6912 atoms
1 atom types

627.1104540974135 732.8155459025876 xlo xhi
627.8718137200547 732.7631862799535 ylo yhi
627.3795990984446 733.2554009015636 zlo zhi

Masses

1 12.0107

Atoms # full

1948 1 1 0 648.7211995058374 640.2176946647261 679.2270164686947 0 0 0
2 1 1 0 635.197895420532 653.2612860044248 659.4803231190367 0 0 0
3 1 1 0 631.1232912961955 639.7535911235224 652.6346437811044 0 0 0
4 1 1 0 651.7560845074554 651.6912684291701 635.1816684114137 0 0 0
5 1 1 0 654.0350186931926 652.5959833437437 675.4149639229703 0 0 0
6 1 1 0 646.1393809667914 676.2141172232812 649.7405263944756 0 0 0
370 1 1 0 655.5148830430948 642.1485322639213 629.192150233488 0 0 0
8 1 1 0 652.8854886112974 647.6498771268481 632.6295664893082 0 0 0
9 1 1 0 650.7282711437028 655.1893527567422 635.4228234808261 0 0 0
10 1 1 0 658.7628370280897 647.3075465980772 676.038085908406 0 0 0
11 1 1 0 654.4485888903249 649.7181475979164 632.4960651837725 0 0 0
12 1 1 0 652.8602045102116 660.4696721221644 635.1183325978138 0 0 0
13 1 1 0 650.6593197894186 650.9181487410749 635.5011217628881 0 0 0
14 1 1 0 655.2538409577207 648.2385669655682 631.4570179795828 0 0 0
15 1 1 0 656.7914039308891 651.4044704607387 634.9033663910799 0 0 0
16 1 1 0 655.0225103080634 647.5400040401361 633.8970728561833 0 0 0
17 1 1 0 653.1700217545496 655.8529907483016 630.4581457442828 0 0 0
18 1 1 0 651.6038633132324 653.5591384992913 636.5495639585621 0 0 0
19 1 1 0 649.1518114627667 652.6168438141808 632.8149358091603 0 0 0
20 1 1 0 644.5122998488677 663.6592034040107 632.5135911879192 0 0 0
21 1 1 0 636.3763093307322 646.6841190627192 652.4759892726172 0 0 0
22 1 1 0 649.193474465877 654.2013658671905 637.5894775769862 0 0 0
23 1 1 0 652.5992900675284 648.4028394747916 635.3250223469628 0 0 0
24 1 1 0 653.675202824576 656.9501563429609 634.7131624283356 0 0 0
25 1 1 0 652.6119111613989 646.61818644931 630.4118048716023 0 0 0
26 1 1 0 652.6796439418712 657.975766398259 637.4160979349426 0 0 0
27 1 1 0 646.4445475942073 630.5497472721826 678.0212765467559 0 0 0
28 1 1 0 651.4390338462995 657.0679091417015 633.6074702616742 0 0 0
29 1 1 0 652.6111408227603 650.3415060087497 632.0342545794853 0 0 0
30 1 1 0 651.7754429960004 648.3034165386588 633.0311875932846 0 0 0
31 1 1 0 655.1413011883695 648.2816628992331 635.0518612892631 0 0 0
32 1 1 0 650.1618685420025 651.5942670674991 632.911901031224 0 0 0
33 1 1 0 633.6954886930828 651.7376297731513 653.5682311646846 0 0 0
34 1 1 0 654.2255358943959 645.7126239914753 632.0981243705706 0 0 0
35 1 1 0 654.0524541311695 649.9787685212887 636.3593617200131 0 0 0
36 1 1 0 656.2001982625068 649.2007569200767 634.9455427876688 0 0 0
37 1 1 0 630.0424118040283 640.9734304727713 654.6702148938368 0 0 0
38 1 1 0 652.7026130891225 651.2440809938412 633.2201138165378 0 0 0
39 1 1 0 650.5204106802212 649.7256730789154 634.469376140052 0 0 0
40 1 1 0 650.0104111960127 658.4703706710211 635.103487089178 0 0 0
41 1 1 0 648.2325648960693 653.7078201901911 636.4869765357394 0 0 0
42 1 1 0 653.0572290152779 646.5240453516501 631.7753097439289 0 0 0
43 1 1 0 651.3358961317288 649.4431892733371 632.1224586016915 0 0 0
44 1 1 0 653.1113313717774 653.4585982059809 634.1393140813227 0 0 0
45 1 1 0 656.7120736141267 648.6140446220738 631.5326900511042 0 0 0
46 1 1 0 650.0529186446746 658.5012613545191 631.3903547602365 0 0 0
47 1 1 0 650.2932878805883 650.2030681440996 633.1143855302365 0 0 0
48 1 1 0 635.6075900870748 648.9473402059904 652.4971446597931 0 0 0
49 1 1 0 652.8921815633915 653.8582213709738 636.4672365856903 0 0 0
50 1 1 0 651.3805638287887 653.197140974863 631.4027324112433 0 0 0
51 1 1 0 653.9445669673512 648.6789105139886 635.7596422044647 0 0 0
52 1 1 0 648.985364325754 656.9857031235227 637.0940931662623 0 0 0
53 1 1 0 653.1763014236979 655.3066226258576 636.5956846023839 0 0 0
54 1 1 0 652.4881795880907 651.4938197632847 630.9996435254374 0 0 0
55 1 1 0 654.7351731895815 652.4082133148319 635.5039472279097 0 0 0
56 1 1 0 655.9021614926954 651.4684114596965 632.2020827107195 0 0 0
57 1 1 0 653.5817461820831 658.3056908897539 635.0474807942109 0 0 0
58 1 1 0 657.04458610338 653.3922847200995 633.3637961236461 0 0 0
59 1 1 0 652.9146365666412 656.7405858076113 637.9502360977757 0 0 0
60 1 1 0 650.2521659797357 659.9342068326586 630.8391232124724 0 0 0
61 1 1 0 654.8167232501937 656.4812977077329 634.1650884114182 0 0 0
62 1 1 0 652.9675261773002 651.1406250744155 634.5981324346508 0 0 0
63 1 1 0 654.1134369028337 651.1093875413707 635.4800923333516 0 0 0
64 1 1 0 651.602589506698 656.0329477277041 634.6152656355113 0 0 0
65 1 1 0 652.8420049407861 656.1125236922885 635.2637669826552 0 0 0
66 1 1 0 648.501973899708 653.1375331362277 633.9765221425063 0 0 0
67 1 1 0 652.5838224089839 659.1841164223148 634.2621442137817 0 0 0
68 1 1 0 656.6202933086115 653.7977464644466 634.6645611468867 0 0 0
752 1 1 0 651.7898498965776 662.443798507404 631.0560097420174 0 0 0
70 1 1 0 651.6103894152983 652.9080855387094 634.1952461133908 0 0 0
71 1 1 0 656.1229655440783 652.6528518368617 635.332998822465 0 0 0
72 1 1 0 658.0353258639166 646.6301608018431 630.3281538484547 0 0 0
73 1 1 0 654.5968254784513 656.2433813408849 632.7614796419679 0 0 0
2791 1 1 0 633.3835388649693 677.1034859240743 653.6475580810682 0 0 0
75 1 1 0 647.7618403070413 656.9860175508107 636.422503578459 0 0 0
76 1 1 0 637.394671140106 650.2548364490924 660.2829498215374 0 0 0
77 1 1 0 652.1643064497703 655.585160022661 631.6895430288581 0 0 0
78 1 1 0 649.6698356146841 651.7599837762131 636.2139638865879 0 0 0
79 1 1 0 647.1700631158274 654.6100242558938 636.2369834082418 0 0 0
80 1 1 0 653.9194146820054 650.0056648528782 631.1597813997831 0 0 0
81 1 1 0 654.2796250931693 648.1952952303537 632.8342254518561 0 0 0
82 1 1 0 645.7828228796856 663.9095441245981 631.8315676558045 0 0 0
83 1 1 0 655.4452307461581 650.5095181226715 633.0473459607126 0 0 0
84 1 1 0 655.8271735855132 650.4678105278774 634.3921851316256 0 0 0
85 1 1 0 657.2357702387354 642.7500187262294 676.1167565142397 0 0 0
86 1 1 0 647.8939625364892 659.6054556964419 636.3379537160207 0 0 0
87 1 1 0 650.6378151614579 653.6586709227462 635.1365472866813 0 0 0
88 1 1 0 656.5998311142903 655.170124571991 635.1363099458969 0 0 0
89 1 1 0 653.7292683101068 653.3796095821565 635.4410753140759 0 0 0
90 1 1 0 652.9888990612569 652.9919658564503 631.5189141616272 0 0 0
91 1 1 0 651.3168338462763 658.3239255916101 634.302384725012 0 0 0
92 1 1 0 651.4587294841205 658.7398026789815 637.3986583491939 0 0 0
93 1 1 0 651.5238098134744 652.2766400395172 632.7519485900083 0 0 0
94 1 1 0 655.7337148431518 656.291748770555 635.300551841296 0 0 0
95 1 1 0 650.2665995754198 655.982865027597 630.6366228724622 0 0 0
96 1 1 0 654.2864667174526 656.2498737371774 637.3691313880786 0 0 0
123 1 1 0 656.7676655809981 646.7800812720253 629.6875644959131 0 0 0
98 1 1 0 653.920653048385 658.5558585909198 636.5068280186998 0 0 0
99 1 1 0 651.5338756464606 648.6893705141724 634.4058865729339 0 0 0
100 1 1 0 654.5822566411399 635.6205510885725 679.6841365693324 0 0 0
101 1 1 0 649.1579702844597 653.0571123826181 635.2896047250339 0 0 0
102 1 1 0 653.0846164388319 660.0163960935629 636.4168434773974 0 0 0
103 1 1 0 654.9449423534664 657.2022011640148 636.4896462163888 0 0 0
104 1 1 0 642.8120820765313 676.6711431273311 648.9340130639298 0 0 0
105 1 1 0 635.1615384436649 653.0447906824975 663.2058984090438 0 0 0
106 1 1 0 650.1636061138546 653.0429767186001 637.0736332329698 0 0 0
107 1 1 0 653.5554209559433 653.902907120137 632.821168842685 0 0 0
108 1 1 0 650.7415911881588 654.6861736829248 631.5571293738847 0 0 0
109 1 1 0 659.0925408820314 646.946641890899 677.369823353122 0 0 0
110 1 1 0 647.4753236169055 661.298878361276 632.7572924442666 0 0 0
111 1 1 0 657.3823289478577 643.9902171950619 675.3541835143243 0 0 0
112 1 1 0 647.4981928967999 655.8050083480628 635.651671634218 0 0 0
113 1 1 0 637.7122516307707 651.0891646346295 658.0848375581337 0 0 0
114 1 1 0 656.9678135735061 674.6596829645673 666.0886656407132 0 0 0
115 1 1 0 640.2774104205652 676.3976145373734 649.4769836001939 0 0 0
116 1 1 0 637.0482920418651 649.493939606573 654.787073264632 0 0 0
117 1 1 0 658.3182392241293 672.8013223839306 662.6053607006127 0 0 0
118 1 1 0 649.2023005503405 656.9040219675076 630.5433162670324 0 0 0
119 1 1 0 656.4418685341492 673.4358651016189 665.7037661345521 0 0 0
120 1 1 0 629.6409703720882 646.3422904771355 652.3779207103901 0 0 0
121 1 1 0 655.7476425814496 645.8243784431312 630.2654304502881 0 0 0
122 1 1 0 644.6956762643093 659.7876249583829 634.1478854535832 0 0 0
1259 1 1 0 634.2737554670869 673.1256692507828 627.9515850768771 0 0 1
124 1 1 0 654.1166564801927 640.7238068271328 679.8981566894083 0 0 0
125 1 1 0 629.4966099616441 648.167311035425 656.8151840523454 0 0 0
126 1 1 0 641.9614756245774 628.4597352113869 676.0155629640149 0 0 0
127 1 1 0 641.2088797918993 628.815987684484 678.1645076559627 0 0 0
128 1 1 0 630.9744655904855 640.4111872285463 651.3499234856178 0 0 0
129 1 1 0 637.3827779682097 648.6894090746147 658.3816743089473 0 0 0
130 1 1 0 633.7415070678107 642.6603221735319 656.8794999153475 0 0 0
131 1 1 0 631.9921263046971 652.238013331675 655.9557250698308 0 0 0
132 1 1 0 635.8494309470572 644.8498627422775 655.5849952219098 0 0 0
133 1 1 0 635.7037371245779 645.8725027023837 653.4002673884182 0 0 0
134 1 1 0 632.1737308714638 649.7293880264266 656.6849216816022 0 0 0
135 1 1 0 632.4653963114592 652.5983536887629 663.1685098824097 0 0 0
136 1 1 0 633.4444150781247 649.9636340372322 651.9196049176935 0 0 0
137 1 1 0 632.170601968758 651.4387263002936 653.6312053173301 0 0 0
138 1 1 0 629.4829518008331 645.179574033325 651.3075089821073 0 0 0
139 1 1 0 634.2719998512837 652.0002634695475 654.821672001125 0 0 0
140 1 1 0 642.8653748650044 674.1975291594882 652.8538305517633 0 0 0
141 1 1 0 636.2012944456989 650.5388665025423 654.2173746871744 0 0 0
142 1 1 0 639.4051260133764 666.0694136548626 630.5331970441587 0 0 0
143 1 1 0 637.0533372864791 647.0088043035877 655.0924028397179 0 0 0
144 1 1 0 631.2936958886128 645.3745621947381 657.2983178800882 0 0 0
145 1 1 0 630.6594015641441 651.0309728058569 661.9655381335153 0 0 0
146 1 1 0 645.58069110493 662.068447388058 636.4650896191563 0 0 0
147 1 1 0 629.8384150892907 646.0443306611573 661.0456079869964 0 0 0
272 1 1 0 653.5931915788777 638.4852595913345 680.1170261849168 0 0 0
149 1 1 0 669.3891328327062 629.5062656328023 654.2013997443206 0 0 0
150 1 1 0 656.7159408848696 673.0014313153262 664.4182556814732 0 0 0
151 1 1 0 632.6929869229918 643.5898289724632 652.2395426681708 0 0 0
152 1 1 0 633.3085063031058 643.3248290841376 655.5272308753426 0 0 0
153 1 1 0 635.5910343256504 651.5183109097065 655.050900912289 0 0 0
154 1 1 0 637.1060204095901 648.1805706018787 654.21706745444 0 0 0
155 1 1 0 631.51971725015 651.5443537843361 662.9894020912519 0 0 0
784 1 1 0 647.1645183431754 665.6976260350157 629.9375027911589 0 0 1
157 1 1 0 649.5978573989092 666.1705938220339 634.0537648744961 0 0 0
158 1 1 0 629.5564510189043 648.7974636707442 653.3750892702584 0 0 0
159 1 1 0 637.2434226479062 650.9181376682734 656.754349109547 0 0 0
160 1 1 0 659.3867472706913 649.7712579794245 630.071016124718 0 0 0
161 1 1 0 657.2206027114439 651.0081685564553 676.0330145378525 0 0 0
162 1 1 0 649.5343413046712 631.0012332439529 676.8087082370495 0 0 0
163 1 1 0 640.1673617421387 675.5696541902997 652.669580897475 0 0 0
164 1 1 0 657.4373755613764 653.2562132349476 677.145303585677 0 0 0
165 1 1 0 649.3491558001069 643.1781436901534 678.4333588596711 0 0 0
166 1 1 0 630.8018083600998 643.2366519246004 654.4314798422733 0 0 0
167 1 1 0 630.4763688410297 649.5956950401461 662.3093310998538 0 0 0
168 1 1 0 648.6474822526505 662.2755210601365 633.4537279803504 0 0 0
169 1 1 0 634.1139726798788 648.4882099100842 652.1016957910903 0 0 0
170 1 1 0 646.5422990333972 673.1295896275994 653.477473005555 0 0 0
171 1 1 0 633.4140010078568 652.4261752124761 655.9055434536634 0 0 0
502 1 1 0 655.5876277315067 650.8739441702324 629.6344493397382 0 0 0
173 1 1 0 649.7226544971489 629.6845625108926 677.1518212828505 0 0 0
174 1 1 0 655.5576548784728 648.3272175521595 679.9506890970516 0 0 0
175 1 1 0 634.3797343060991 646.1825913004653 655.7533467198958 0 0 0
176 1 1 0 631.4048318872406 648.151076231244 655.0056818250865 0 0 0
177 1 1 0 630.0301726235579 649.295200357576 657.4305933807491 0 0 0
178 1 1 0 645.4575425857737 629.4969827084129 678.008468768583 0 0 0
179 1 1 0 648.7268398765178 657.7404170550627 634.2934446266552 0 0 0
180 1 1 0 630.6342441716474 644.9175653983173 661.5172599715245 0 0 0
754 1 1 0 652.0135851632407 661.0947309649534 630.9732435262525 0 0 0
182 1 1 0 654.4046686597402 642.0370906606602 679.7063004386438 0 0 0
183 1 1 0 636.2783428106084 644.9349934273939 656.9352988084089 0 0 0
184 1 1 0 669.5579696864162 632.8476090041606 653.2872026845876 0 0 0
185 1 1 0 658.3232111382409 646.193012984185 675.2679490117447 0 0 0
186 1 1 0 651.2987498467108 641.5280383152066 677.2237104486971 0 0 0
187 1 1 0 633.0842815445047 650.2182242977186 658.8720312663679 0 0 0
188 1 1 0 634.3790505280723 648.2112289233462 654.6377450677409 0 0 0
189 1 1 0 654.1412305962147 637.7749725745203 678.8169296290922 0 0 0
190 1 1 0 634.5604149189085 649.4320315638191 657.2422669244941 0 0 0
191 1 1 0 630.1865473468846 650.0276756182342 653.6939141593364 0 0 0
192 1 1 0 643.1241528468425 628.814098577224 676.9056302793672 0 0 0
193 1 1 0 650.5225862828643 660.2056249088539 632.3561919154545 0 0 0
194 1 1 0 657.3642186294992 654.0651929594965 675.9617153338738 0 0 0
195 1 1 0 630.3446162222109 650.7460963895213 655.0126578496003 0 0 0
196 1 1 0 630.6515056395887 646.3370002979407 655.3002326176882 0 0 0
197 1 1 0 636.5700365777196 648.026283826343 652.8900896114455 0 0 0
198 1 1 0 644.4480861956856 667.701493651927 631.8121192059641 0 0 0
1622 1 1 0 648.5235617569208 665.7657610590677 630.2842897495558 0 0 1
200 1 1 0 657.9040325662552 641.1874642671053 679.2801745230071 0 0 0
285 1 1 0 676.9644979484468 629.2912015708242 659.6383239060129 0 0 0
202 1 1 0 657.9415172740507 675.2177863718684 665.2773611467732 0 0 0
203 1 1 0 647.2241422835863 630.6566071453972 676.8032298646795 0 0 0
204 1 1 0 655.1806075808454 655.0589048496661 675.4795627389677 0 0 0
205 1 1 0 634.9719787016426 650.7873339920606 662.3074979858757 0 0 0
206 1 1 0 637.2253508571773 652.1581928966355 658.9097496015313 0 0 0
1958 1 1 0 649.4912796751039 653.973923990248 630.0496492633373 0 0 1
208 1 1 0 655.3926446626728 649.1880585918788 677.0115922935496 0 0 0
209 1 1 0 655.500173586922 647.7990785625917 630.0985858115857 0 0 0
210 1 1 0 645.4707726490002 661.0126750229584 634.1016508121102 0 0 0
211 1 1 0 672.4805248717013 630.9718440374754 659.3009101195776 0 0 0
212 1 1 0 653.9322259876006 650.431310398713 674.4702360449932 0 0 0
213 1 1 0 674.8901766531585 630.7542941983245 658.9970758309701 0 0 0
214 1 1 0 636.1455639842872 649.567872157387 660.5278746566499 0 0 0
215 1 1 0 634.0904127870004 651.0263813984955 659.7192766904849 0 0 0
216 1 1 0 658.0665394139671 649.737509776212 629.6081818346566 0 0 0
1791 1 1 0 648.6544012493132 638.9121933290741 679.8640101709402 0 0 0
218 1 1 0 637.2510193404366 651.711905135492 660.3331583670911 0 0 0
1804 1 1 0 646.9745919595866 661.9967239877075 628.6616142712014 0 0 1
220 1 1 0 647.2659663779543 658.8747345866195 632.1119681353535 0 0 0
221 1 1 0 655.7694048421926 656.3957966720113 675.59624533287 0 0 0
2628 1 1 0 639.9289492135747 677.6007373992788 650.2397169589183 0 0 0
223 1 1 0 633.714986213282 644.0548047862691 653.1179004317437 0 0 0
224 1 1 0 640.7539604456648 628.7303235710115 676.8179206904006 0 0 0
225 1 1 0 677.1132581369017 631.0641742405304 661.3513204828847 0 0 0
957 1 1 0 651.8902440181871 654.0589310447042 628.2475746996707 0 0 1
227 1 1 0 646.7342645328648 675.7194855740979 652.4697595985257 0 0 0
228 1 1 0 656.5133332917204 650.9627487627441 630.8406291183389 0 0 0
229 1 1 0 677.1212719345915 629.711560451366 660.9859541188915 0 0 0
230 1 1 0 631.448332126799 644.2516064182827 652.3052371701901 0 0 0
231 1 1 0 635.5730731488499 650.2968878958259 652.9552718809831 0 0 0
232 1 1 0 633.8924922834672 652.5201691850857 659.6147071187078 0 0 0
233 1 1 0 635.2595599209575 650.0328760299851 659.4923586712866 0 0 0
234 1 1 0 650.2324915050561 645.870856098555 675.0235302913708 0 0 0
235 1 1 0 645.0302060853089 661.3669315236402 631.7595152929474 0 0 0
236 1 1 0 645.704301629984 666.978679644896 631.6146394370331 0 0 0
237 1 1 0 676.0367435240951 629.941259003602 658.691157524434 0 0 0
238 1 1 0 652.1133093223334 661.6016113276486 634.7874060021682 0 0 0
239 1 1 0 636.1753724094831 651.7493731047632 656.2984504677635 0 0 0
240 1 1 0 634.2357888758302 650.4359734558577 661.1585073602014 0 0 0
241 1 1 0 632.8735673652036 647.539459803086 652.1125278850188 0 0 0
242 1 1 0 656.115368527304 653.9242531500574 675.2077327751397 0 0 0
243 1 1 0 665.8935779802263 631.3758596293468 654.9780934334428 0 0 0
244 1 1 0 656.612161821555 643.1374136662198 679.3302268909478 0 0 0
245 1 1 0 633.8334288259387 646.7074197932643 661.0555688198932 0 0 0
1455 1 1 0 656.0893395314212 645.7500553374769 627.649402288864 0 0 1
247 1 1 0 648.6380346632461 662.7052469118607 631.8110069054723 0 0 0
248 1 1 0 636.0443375914335 652.8161058329571 658.467647067653 0 0 0
249 1 1 0 657.757477393736 673.5148411920464 663.6001316125329 0 0 0
250 1 1 0 653.3866221944886 646.1363072614524 676.1717402942979 0 0 0
251 1 1 0 650.192634189772 662.9454734479389 635.8339328747262 0 0 0
1680 1 1 0 643.6988960520187 664.8291603485214 627.9466476327862 0 0 1
253 1 1 0 668.7509737788534 631.7052202479907 653.0343422101573 0 0 0
254 1 1 0 632.3434741272522 648.1535051628663 662.9850063639944 0 0 0
255 1 1 0 654.358817769177 649.1528541744864 677.9624555459399 0 0 0
1671 1 1 0 633.6929678248138 669.5028090084711 627.787325968233 0 0 1
257 1 1 0 640.9783689808013 664.1986124369067 631.2330373816982 0 0 0
258 1 1 0 652.975248187684 639.8823897728894 679.8224402098749 0 0 0
259 1 1 0 635.1368147745203 654.5435124975525 661.4391441649939 0 0 0
3089 1 1 0 668.9437391182984 629.3851506542343 651.2859220386767 0 1 0
261 1 1 0 656.4956823968912 659.3514028327343 676.5072661327745 0 0 0
262 1 1 0 632.6780737058128 646.1351024208685 661.6873035007479 0 0 0
263 1 1 0 650.3016373460879 648.0335214970632 676.4832054217278 0 0 0
264 1 1 0 653.4939809635212 653.0807906082634 678.7422067394465 0 0 0
265 1 1 0 656.1975439547838 644.4628601085399 674.6947125309781 0 0 0
266 1 1 0 653.4053542495433 647.5235415820486 676.5581385889258 0 0 0
267 1 1 0 655.3928273139775 657.1299112749123 676.8167566026474 0 0 0
268 1 1 0 657.5528362545119 652.1037551841807 631.3503316913514 0 0 0
269 1 1 0 652.3390851006989 645.4306344553274 676.9952548845123 0 0 0
3037 1 1 0 664.2244834755599 629.7911057438772 654.502835187769 0 1 0
271 1 1 0 643.8728139131082 675.0409910732229 653.426308679674 0 0 0
1336 1 1 0 649.130166242189 661.9802221000781 630.6882983786386 0 0 1
273 1 1 0 633.3339204364952 643.4327777828681 657.9929002736552 0 0 0
274 1 1 0 641.6076353341383 675.0794899435199 652.2872370817944 0 0 0
275 1 1 0 632.0048071181728 649.6941698312531 651.9309226355018 0 0 0
276 1 1 0 654.1883565682524 653.7991467872403 630.9366250733027 0 0 0
277 1 1 0 655.0867478722365 643.6516801830231 676.5539889063925 0 0 0
278 1 1 0 657.7285204635587 653.1723572724359 630.1325653362402 0 0 0
279 1 1 0 650.6840805945449 663.8067147545715 632.5978165917004 0 0 0
280 1 1 0 650.6885464518484 649.3971119566612 676.7363283969487 0 0 0
281 1 1 0 646.0032551622392 661.2243524891085 632.8189278654928 0 0 0
282 1 1 0 651.6022645721996 651.016818471478 678.3806761420882 0 0 0
283 1 1 0 629.236270561649 640.0548256118648 654.0128429432923 0 0 0
284 1 1 0 667.6268356817766 629.8977233669168 651.4318700350526 0 0 0
326 1 1 0 651.5615265652503 648.9680326310968 680.1105815844539 0 0 0
286 1 1 0 630.8690557319677 649.692151855141 660.0009647997155 0 0 0
287 1 1 0 655.8974129872407 652.0886658422622 679.1869252499179 0 0 0
288 1 1 0 653.4914805343191 640.5799309019724 677.1733279645359 0 0 0
289 1 1 0 646.8777465919021 664.0201659888124 632.5998854317522 0 0 0
290 1 1 0 629.5561704431075 646.9247778401422 658.8048068655715 0 0 0
291 1 1 0 635.7738496285442 651.9849751641578 662.4256896607202 0 0 0
292 1 1 0 658.7540938681615 675.6560404774741 663.0321981235884 0 0 0
293 1 1 0 672.6894973993733 633.3153134051742 656.2253341593051 0 0 0
294 1 1 0 650.5608773608121 631.9184600799392 677.1080346697894 0 0 0
295 1 1 0 655.8631796700805 653.4697816327783 679.0035720451108 0 0 0
296 1 1 0 634.1230971980593 640.9669404083421 655.1102005127597 0 0 0
297 1 1 0 653.0661204902727 647.4260858729813 679.0110039278865 0 0 0
306 1 1 0 651.6325014320767 639.8366272058744 679.5740601851265 0 0 0
457 1 1 0 628.7274538698531 640.9918962108951 651.0919617491702 0 0 0
300 1 1 0 657.1715289586383 648.0734672360519 674.4952272983709 0 0 0
2793 1 1 0 636.2366114004585 677.9286921908373 651.9939240375256 0 0 0
302 1 1 0 652.4475081676485 643.3697213213522 678.2104198538599 0 0 0
303 1 1 0 633.3685489530035 652.0963162307546 664.2513016272896 0 0 0
304 1 1 0 642.0840070899536 665.0852622867102 631.3772850311672 0 0 0
305 1 1 0 636.4986608644516 652.4819157290459 661.2600053294095 0 0 0
745 1 1 0 672.1767819733609 628.7623251847496 656.8543456946169 0 0 0
307 1 1 0 651.5283632392549 656.8699780955359 632.2445473433171 0 0 0
308 1 1 0 634.2660668637295 644.6037873002439 655.4134828570875 0 0 0
309 1 1 0 648.6396516405797 658.0483962133607 631.6666536879476 0 0 0
310 1 1 0 655.4678084068274 652.6326151458073 675.0917501411221 0 0 0
311 1 1 0 648.106899832392 664.0035256456194 631.970998245387 0 0 0
312 1 1 0 636.3490147951892 645.7923810569757 654.6601142676619 0 0 0
313 1 1 0 657.2957761716324 651.8780410999254 677.2210843913117 0 0 0
314 1 1 0 658.9852179347225 652.0926678787237 630.6316843890144 0 0 0
315 1 1 0 630.3354851605881 642.7729872660193 650.8938231653169 0 0 0
316 1 1 0 651.5527058780177 645.3475923758438 674.6008178172813 0 0 0
317 1 1 0 629.2410754452736 638.7076816672148 650.8396712546677 0 0 0
318 1 1 0 659.0905226436242 644.566484575086 676.9952294757445 0 0 0
319 1 1 0 659.4730146273786 648.1125347306596 631.5689985381573 0 0 0
320 1 1 0 669.2863940562302 633.4412546921353 654.4731300675429 0 0 0
321 1 1 0 635.4425365764281 652.5304537591808 657.2237220241309 0 0 0
322 1 1 0 633.6661311588043 646.5304528309143 657.1470467994725 0 0 0
323 1 1 0 654.5739077796812 654.0200118378083 678.7578792256268 0 0 0
324 1 1 0 653.9076304901125 654.7921546888542 629.9934378905127 0 0 0
325 1 1 0 635.8501659869044 648.0705120213154 660.7823248728628 0 0 0
743 1 1 0 642.48162597263 676.4288952754764 652.2478167852871 0 0 0
327 1 1 0 656.9085918197965 655.4673820754497 677.7748926195221 0 0 0
328 1 1 0 652.0942433807713 644.671516716938 675.6935227847699 0 0 0
329 1 1 0 655.5688211209771 656.1078430928764 677.8473644497053 0 0 0
330 1 1 0 659.1091159498396 643.1755252614544 679.063299235075 0 0 0
331 1 1 0 657.9361594689619 642.3001782738673 630.3841662190058 0 0 0
332 1 1 0 646.9201284229156 665.1283983227253 634.7056218816597 0 0 0
333 1 1 0 670.4538187332569 633.9080800748743 655.6134403607043 0 0 0
334 1 1 0 654.4219144358685 641.5696413184537 676.5309270670971 0 0 0
335 1 1 0 654.8938809691601 639.7188612016769 677.1462899159078 0 0 0
336 1 1 0 649.2217841690187 642.599540298371 677.1431568894254 0 0 0
337 1 1 0 651.6906334900564 662.8614907486368 632.4433209071523 0 0 0
338 1 1 0 635.6343354725258 644.1477185388603 657.9217179337354 0 0 0
339 1 1 0 650.3280367235726 647.3448613570084 675.1996917673125 0 0 0
340 1 1 0 655.1708380832794 636.8650501736797 679.149809433903 0 0 0
4762 1 1 0 628.9644003779091 647.0891271308461 657.5511036611775 1 0 0
7 1 1 0 653.6096463190416 644.252170054384 630.0106810810361 0 0 0
343 1 1 0 664.7951347948452 631.0868383401462 654.3163691293478 0 0 0
344 1 1 0 651.8511575733468 642.7739122066231 677.1348678524937 0 0 0
345 1 1 0 657.1540794449375 649.613758596457 630.6686831261662 0 0 0
346 1 1 0 644.7718983589609 674.5512564138266 654.3937109695047 0 0 0
347 1 1 0 651.1299172551666 639.8039300410894 675.1282617178567 0 0 0
348 1 1 0 651.6477685010487 649.2350332207183 630.4627559237227 0 0 0
349 1 1 0 631.7764536733167 647.086716792595 662.2772137012386 0 0 0
350 1 1 0 633.5014263789278 646.9866959324294 659.5444257003226 0 0 0
351 1 1 0 631.3415397101164 651.7953497933305 654.8183729114758 0 0 0
352 1 1 0 645.8628336698123 661.8768014717042 635.0579118167641 0 0 0
353 1 1 0 656.9627644502549 650.0772991817494 678.7391176009205 0 0 0
354 1 1 0 630.889589892588 651.1784145314512 660.5380815996712 0 0 0
355 1 1 0 649.3762884195871 659.997524780804 633.0864227555007 0 0 0
356 1 1 0 651.988321672899 660.6058614821906 632.5023604570018 0 0 0
357 1 1 0 650.5421078475262 638.838781977584 677.2450536788646 0 0 0
358 1 1 0 635.7758666242107 646.6783957698424 658.4649662142331 0 0 0
359 1 1 0 653.6907957718133 658.7732471092952 631.98114713474 0 0 0
360 1 1 0 636.5943077534636 646.2433004675756 657.4064794483469 0 0 0
361 1 1 0 651.311547846036 650.061479762588 675.6747151626382 0 0 0
362 1 1 0 653.1500929028236 649.1796024044809 674.4808210051937 0 0 0
363 1 1 0 631.2730424264195 650.4481007232029 652.8294051035981 0 0 0
364 1 1 0 650.4996192721982 648.994634714657 679.1744219190183 0 0 0
365 1 1 0 630.4823787672929 647.3177647923056 661.5506624316668 0 0 0
366 1 1 0 667.8345373574429 630.4072638427436 656.0827177319221 0 0 0
367 1 1 0 642.6409845384807 628.9020233798472 678.2890351265343 0 0 0
4563 1 1 0 679.0442834383394 657.700212888904 631.4725413758036 0 0 0
369 1 1 0 650.2433618261986 642.1942018196663 674.9799291940845 0 0 0
2913 1 1 0 631.7046930055365 678.7686451743158 650.3122049139345 0 0 0
371 1 1 0 658.2266158215208 642.1719397090685 676.9862561551372 0 0 0
372 1 1 0 648.347394388509 633.0775464570611 677.2152993040742 0 0 0
373 1 1 0 634.5772764527246 648.6445170721996 656.0627913732712 0 0 0
374 1 1 0 630.2829379841797 645.652522620083 656.4774970949829 0 0 0
375 1 1 0 650.3477926816545 664.8007161445371 631.6399720535264 0 0 0
376 1 1 0 654.6863835480899 657.4327162987432 631.9754946611882 0 0 0
377 1 1 0 668.3816757011517 631.7590083792285 655.9479347010114 0 0 0
378 1 1 0 629.8916421097108 639.1586761920769 653.123430897034 0 0 0
379 1 1 0 632.7390522034522 646.5558694541701 653.3642806100625 0 0 0
380 1 1 0 637.8295362163286 649.904993161218 658.9234901555001 0 0 0
381 1 1 0 630.3422772046467 648.7264855092137 661.1957294567575 0 0 0
382 1 1 0 657.8009241856319 657.7240876492227 675.3256829178697 0 0 0
383 1 1 0 655.6408826756026 641.6262714152714 677.712706960962 0 0 0
384 1 1 0 657.1990188181225 656.4772063941787 675.5088881770295 0 0 0
385 1 1 0 653.5293649959248 637.7587442494007 677.5370101256431 0 0 0
2375 1 1 0 634.1728080254378 675.9797270207514 653.8485214216527 0 0 0
387 1 1 0 652.1862955508005 633.9785061255776 677.4848150865015 0 0 0
388 1 1 0 654.517309881339 655.1395705719698 677.813573036004 0 0 0
298 1 1 0 664.3821973459663 630.1392435235186 651.9253489282529 0 0 0
390 1 1 0 653.5189561212733 653.5043250314333 676.3517046625483 0 0 0
391 1 1 0 674.8688818253876 632.1514774020806 657.1052035421316 0 0 0
392 1 1 0 652.8636535479548 652.9135971551173 677.4897833839393 0 0 0
393 1 1 0 652.2317049525655 642.943445083722 679.5135056611774 0 0 0
394 1 1 0 649.7541445630299 641.2253769477346 677.0465338405246 0 0 0
395 1 1 0 653.439536557789 648.2239891806593 673.3208605461153 0 0 0
396 1 1 0 672.9759984079932 631.6360812128661 654.0594444823276 0 0 0
1228 1 1 0 649.8384041320576 636.9572176375384 680.3103168394252 0 0 0
398 1 1 0 654.7847618237139 651.2168489369064 679.7796971378392 0 0 0
399 1 1 0 648.8960882064291 640.2490252581157 677.8170275673427 0 0 0
400 1 1 0 635.3275542241718 649.203543933157 658.3702047547451 0 0 0
401 1 1 0 647.8608190380385 654.3771062029471 633.5511462918311 0 0 0
402 1 1 0 631.2133545048223 644.5771297782603 658.5748407245168 0 0 0
403 1 1 0 630.5320823154016 644.172796326388 651.2321824935864 0 0 0
404 1 1 0 631.7002736195407 648.2999709710402 651.8203784266028 0 0 0
405 1 1 0 652.0195936706327 661.8625825016456 633.380604189262 0 0 0
406 1 1 0 646.5619906798152 662.5030919010045 637.2861834685241 0 0 0
407 1 1 0 637.412040976148 649.6401689033455 656.1443008150128 0 0 0
408 1 1 0 632.7419483895743 652.8925674791717 660.6778812661286 0 0 0
409 1 1 0 657.5678453509225 655.4310093613692 676.4030574954703 0 0 0
410 1 1 0 656.780789913359 649.1716822116689 677.5131810850664 0 0 0
411 1 1 0 630.3962295851613 647.7287825188276 652.535589715156 0 0 0
412 1 1 0 658.5528352473572 646.8838963369362 679.6089743573311 0 0 0
413 1 1 0 671.8711869223833 633.6631301231284 655.0041417552407 0 0 0
414 1 1 0 671.9359724408307 632.6533586928018 654.046246558491 0 0 0
415 1 1 0 669.6187292834159 630.5534824392668 653.17622152685 0 0 0
416 1 1 0 629.743856066343 642.316431577478 654.6667899099351 0 0 0
417 1 1 0 636.1051817830062 647.9751438074705 659.1006892416924 0 0 0
2659 1 1 0 640.6480130938704 677.6566119739002 651.4752719386441 0 0 0
419 1 1 0 634.2863265049723 644.4911000491504 658.366166549566 0 0 0
420 1 1 0 635.8461921218744 653.6324834914668 660.6414695709263 0 0 0
421 1 1 0 669.7129102792387 631.8014744106837 656.751922045912 0 0 0
422 1 1 0 649.9611483611193 645.0832117154564 677.2747139067956 0 0 0
3031 1 1 0 643.102583860574 677.9972302790339 649.3777898027117 0 0 0
424 1 1 0 633.9190064908433 648.5250695095282 662.7423571638249 0 0 0
425 1 1 0 656.0934270394513 651.302983614035 675.0764304241072 0 0 0
426 1 1 0 650.1887655897765 647.5995012177864 678.9365496741865 0 0 0
427 1 1 0 651.9780643168989 643.3678851264292 675.8968103666687 0 0 0