LAMMPS data file via write_data, version 2 Aug 2023, timestep = 50000, units = metal

12520 atoms
1 atom types

632.3984685230662 731.7815314769416 xlo xhi
632.5972138487643 732.2917861512176 ylo yhi
632.6431768255624 732.2458231744196 zlo zhi

Masses

1 12.0107

Atoms # full

1 1 1 0 636.0293975904594 636.2720023440015 676.6760400827471 0 0 0
2 1 1 0 664.1869145673643 641.4021514329336 642.3663615158582 0 0 0
3 1 1 0 636.2168189814973 653.3566413239506 639.3266669594341 0 0 0
4 1 1 0 636.1501988075408 636.4908581921144 679.1514715790415 0 0 0
5 1 1 0 654.7644516458964 640.2172560404274 650.2609069045452 0 0 0
6 1 1 0 647.4543547587832 655.8512264200285 653.4096276066272 0 0 0
7 1 1 0 636.3331167970003 651.8699174097179 639.2245112271158 0 0 0
8 1 1 0 634.9346289217741 633.8854445914423 673.4012540160705 0 0 0
6616 1 1 0 633.6412436238742 681.0083203091159 657.8930952525187 1 0 0
10 1 1 0 636.1503279715873 651.1397918677028 640.3928784634486 0 0 0
11 1 1 0 665.949823090476 635.0834409722471 653.9520239831244 0 0 0
12 1 1 0 672.5670011385754 660.5497405056369 681.4874478107939 0 0 0
13 1 1 0 663.7008198972147 640.1903639095144 641.8589783720345 0 0 0
14 1 1 0 656.5209439978742 638.4345143231199 650.0374840309008 0 0 0
15 1 1 0 640.3818321141014 654.5635781685003 650.0144649208696 0 0 0
16 1 1 0 638.5718485642974 637.4781117236894 676.6156626167237 0 0 0
17 1 1 0 655.7882423035694 640.0945594369036 648.2407719243757 0 0 0
18 1 1 0 635.2326006713452 634.7230049444626 674.5504010989498 0 0 0
19 1 1 0 673.4478050730319 642.8340884097241 637.7324119646886 0 0 0
20 1 1 0 645.3635614161484 639.921716789104 679.3692921146178 0 0 0
21 1 1 0 669.6989431737555 662.8260739883632 676.8637289767116 0 0 0
22 1 1 0 673.9118343352234 659.8166631898955 681.3522313365647 0 0 0
23 1 1 0 667.6789853583434 644.632065533223 641.2998507777401 0 0 0
24 1 1 0 646.1085112942923 655.4623222901656 652.8361571705865 0 0 0
25 1 1 0 642.5483026667914 640.1241720923796 679.9602190706178 0 0 0
26 1 1 0 637.9263767485515 649.7195404520364 648.1539263931824 0 0 0
27 1 1 0 668.2705260491406 645.4696139205855 640.3843028540747 0 0 0
28 1 1 0 663.3014895773096 641.2196614840756 650.0020761763619 0 0 0
29 1 1 0 662.1696025628594 644.1569491865798 645.972742536241 0 0 0
30 1 1 0 665.9038721534326 643.8494927280336 642.533784753914 0 0 0
1412 1 1 0 660.7592810684079 634.1525637299183 669.5289561703646 0 0 0
32 1 1 0 664.6668078537674 636.0370917216823 650.4345513263845 0 0 0
33 1 1 0 666.5941075368829 644.9219169894587 642.0714633473855 0 0 0
34 1 1 0 662.1537923130946 642.6450414980934 643.2646340864338 0 0 0
35 1 1 0 640.3604294840703 653.2063057776628 652.475128754537 0 0 0
266 1 1 0 642.4789601711085 681.68059642831 659.0758112437596 0 0 0
6692 1 1 0 635.4364078830806 680.8647224012022 655.7264069845904 1 0 0
38 1 1 0 665.0377603351401 636.8488014564043 646.3352451236738 0 0 0
39 1 1 0 641.277284535595 654.8853768118609 651.0703852601458 0 0 0
40 1 1 0 641.1742012416189 652.1971507850945 653.0279883915346 0 0 0
41 1 1 0 638.4612362187039 651.0637751170179 650.1380564453664 0 0 0
42 1 1 0 636.347149789335 652.595435501415 647.6312626054424 0 0 0
43 1 1 0 635.0308159622556 653.7090659649912 640.0545764942812 0 0 0
44 1 1 0 645.1008929063526 655.0841836047746 651.679402834367 0 0 0
45 1 1 0 639.2563601693868 653.7475948013472 650.4111105020903 0 0 0
46 1 1 0 639.3306371596268 651.4208981389331 651.1768165411511 0 0 0
47 1 1 0 663.5930955821426 637.7869725268455 643.0852321143176 0 0 0
48 1 1 0 639.4128360340387 664.8944253877514 634.0239430314002 0 0 0
49 1 1 0 643.1297627145649 655.4396960372158 653.2126229171915 0 0 0
50 1 1 0 639.1379856926214 650.4175653130956 644.1090735130107 0 0 0
51 1 1 0 661.8901940272461 646.9352405475929 646.192657806852 0 0 0
52 1 1 0 669.2403123286646 644.9009334662893 639.3935935512987 0 0 0
53 1 1 0 659.8329214421346 638.2390310531016 651.1886595593462 0 0 0
54 1 1 0 646.1349195639651 638.8681688484787 680.1230396279119 0 0 0
55 1 1 0 636.9538274666832 665.1819281854752 633.9739041070308 0 0 0
56 1 1 0 664.6082518023449 639.1734240508412 641.4644905527806 0 0 0
57 1 1 0 670.5350189500983 643.5767656192905 635.2880056254028 0 0 0
58 1 1 0 663.6685823721285 637.2710586388944 644.4235864680072 0 0 0
59 1 1 0 639.6915057521047 650.0866233162811 646.477792913295 0 0 0
60 1 1 0 641.2158458905227 661.5381443413288 638.7988692762576 0 0 0
61 1 1 0 664.9520786808658 637.2411336449118 645.0234557048533 0 0 0
62 1 1 0 657.3981543450219 635.3070305188957 679.7228681107806 0 0 0
63 1 1 0 673.2838831402099 644.6745825729008 636.1171147272662 0 0 0
64 1 1 0 642.2061661731817 651.1710476095694 649.4908480790108 0 0 0
65 1 1 0 634.919172228509 634.246159307963 675.8605040869095 0 0 0
66 1 1 0 640.1981633868276 650.0194612401492 648.8482457268811 0 0 0
359 1 1 0 638.2246100107806 680.9931181704376 656.8812935294518 0 0 0
68 1 1 0 643.2224926179658 651.859974063147 654.1352245713024 0 0 0
69 1 1 0 643.6472349021094 655.3905938335607 651.8506280773877 0 0 0
3406 1 1 0 667.2878625236364 632.7736077348737 671.4289763429645 0 1 0
71 1 1 0 637.418908581661 664.8504234354423 637.8080675977673 0 0 0
72 1 1 0 663.9178321903947 646.3137820092926 640.0743495340087 0 0 0
73 1 1 0 657.4368855449123 667.6177990214563 681.0370531585511 0 0 0
74 1 1 0 657.1479877684955 666.8717392735176 679.8395654785073 0 0 0
75 1 1 0 655.0798850896891 668.08527004791 679.8700149713508 0 0 0
76 1 1 0 656.0122422314065 667.3801705777173 679.1009684093876 0 0 0
77 1 1 0 660.0266990953542 668.6447172352441 677.5577786466124 0 0 0
78 1 1 0 635.40249999859 635.0050170699787 676.9544640196677 0 0 0
79 1 1 0 672.9733584532737 644.1739269954425 637.3917382090931 0 0 0
80 1 1 0 658.6553679705155 638.293826580529 678.5294362901043 0 0 0
81 1 1 0 650.3788726475517 648.534789144252 652.5152555431013 0 0 0
82 1 1 0 649.250771207024 647.6982760821377 652.8622558882412 0 0 0
83 1 1 0 649.1684063530204 646.4901152126242 652.1122891018942 0 0 0
84 1 1 0 647.0780754045078 649.7070438283914 649.2353756299599 0 0 0
85 1 1 0 647.8613438467602 647.9092680837551 650.5997789465509 0 0 0
86 1 1 0 648.1488828950437 648.8574673696945 649.5571129896713 0 0 0
87 1 1 0 648.8772309911327 646.8388969878225 650.702518478965 0 0 0
88 1 1 0 650.0449107250698 646.6066698030113 649.8031391143426 0 0 0
89 1 1 0 676.4863954651389 648.7812889699069 633.8428993318606 0 0 0
165 1 1 0 646.7739696275116 680.728911896923 660.5702216238833 0 0 0
91 1 1 0 637.196667251561 680.0800198974974 657.2982614844246 0 0 0
92 1 1 0 664.4207564268083 635.9836727243637 676.9819535342904 0 0 0
1405 1 1 0 681.4999424764023 658.5227858499376 674.1200988804266 0 0 0
94 1 1 0 675.1004359610457 645.0045759867846 633.717722804541 0 0 0
252 1 1 0 668.7381786151929 632.994023084757 663.5104352814838 0 0 0
161 1 1 0 640.2517175969277 669.4140052435897 633.2642225938156 0 0 0
97 1 1 0 664.7174206058512 634.1093342357045 673.7034910946782 0 0 0
98 1 1 0 634.2693591118856 657.7906952125671 640.5828857999089 0 0 0
1299 1 1 0 637.4137514680997 635.3490985219688 681.3467880484637 0 0 0
100 1 1 0 661.1456637921066 638.1340999658373 643.3898140223585 0 0 0
109 1 1 0 662.5813693196487 633.4917026553779 672.6301024672725 0 0 0
1366 1 1 0 675.5597629681253 661.4251801698066 681.9255142499213 0 0 0
1407 1 1 0 663.146500549653 633.1659691071752 669.0077667805137 0 0 0
3473 1 1 0 645.4813566931281 682.3169529910222 655.2758968859081 0 0 0
105 1 1 0 659.4234029765789 638.2573858487551 679.6877435172104 0 0 0
106 1 1 0 663.8879224322087 634.7895212026726 674.8952717804946 0 0 0
107 1 1 0 660.1873474208692 640.1739179149351 642.2877565439628 0 0 0
108 1 1 0 642.9782280536069 635.3700516746521 675.9833500811897 0 0 0
3852 1 1 0 666.0166670482799 634.1726015602876 680.9484166140355 0 1 0
110 1 1 0 668.0208568537133 633.5492272335067 664.5893173525168 0 0 0
111 1 1 0 637.1557342472644 679.8371435630271 658.7599888432457 0 0 0
112 1 1 0 664.6944502896278 636.6220047346712 679.3453807468353 0 0 0
113 1 1 0 680.9210309848181 657.6524392919389 678.4359169646963 0 0 0
114 1 1 0 658.7031849828519 634.8696148662463 675.0018355219925 0 0 0
115 1 1 0 678.7572416703867 660.7073233487301 680.6463665328246 0 0 0
116 1 1 0 644.5358694450059 636.1788061358291 679.1292577013612 0 0 0
117 1 1 0 645.3850019008231 679.5102014772847 658.4828616734678 0 0 0
118 1 1 0 664.8758964137447 635.146337649025 675.9862429415768 0 0 0
119 1 1 0 664.1032674069672 634.051387428086 652.4836808545456 0 0 0
120 1 1 0 652.1205471359025 673.7481990286126 661.8544291891819 0 0 0
121 1 1 0 663.4912495315209 638.9042818875954 649.8507872664751 0 0 0
122 1 1 0 657.284309159713 637.9753120195434 678.6236397249307 0 0 0
123 1 1 0 642.1359650456578 636.2819470811545 678.7361218264243 0 0 0
124 1 1 0 667.5161772040669 646.5761434059195 640.0501790479824 0 0 0
125 1 1 0 635.3535220647254 650.043274008501 647.9349582920296 0 0 0
126 1 1 0 663.833584274975 633.5809385163653 657.517480872667 0 0 0
1411 1 1 0 677.4902777400171 649.676017841121 633.3281527128064 0 0 0
128 1 1 0 659.1923056307069 644.9639243584803 644.5455877258771 0 0 0
129 1 1 0 667.3704475171984 642.3267025443171 636.3008648361226 0 0 0
569 1 1 0 634.336015085852 662.6201530117037 634.7011348058713 0 0 0
131 1 1 0 666.2373524390289 641.6043177491844 636.6057113739048 0 0 0
4198 1 1 0 649.4002693945896 682.398766398463 660.2193411766701 0 0 0
2546 1 1 0 657.1261770064411 635.5559805304352 681.0881087694232 0 0 0
1177 1 1 0 681.7875236081031 662.1919628510497 670.7056681642496 0 0 0
135 1 1 0 660.7398296370768 643.0188575766174 645.086542921374 0 0 0
1137 1 1 0 639.1843457699077 681.2801352019367 657.9748298564219 0 0 0
1427 1 1 0 652.462112701507 670.6576785566727 682.2566403743542 0 0 0
138 1 1 0 643.6761444309533 680.0853624503312 660.496304269837 0 0 0
139 1 1 0 663.0558319835764 636.2877088660597 677.0268720081378 0 0 0
3050 1 1 0 652.2565712079017 681.5186449454457 658.3146278841036 0 0 0
141 1 1 0 643.1725077369948 666.866763499454 634.3895401525693 0 0 0
142 1 1 0 649.0569905051437 637.1573442062522 680.3528037949393 0 0 0
143 1 1 0 656.5379035020168 668.3356602204896 659.2361956461639 0 0 0
144 1 1 0 644.5108913011267 652.012040678583 649.8649202821776 0 0 0
145 1 1 0 646.890647744536 653.3228648782458 654.7624484151555 0 0 0
146 1 1 0 647.555340435734 653.108671104946 653.6568246778479 0 0 0
147 1 1 0 646.8774987194901 651.2632709028089 655.1798873669503 0 0 0
148 1 1 0 647.1804569460352 650.4410233854488 654.0816026238847 0 0 0
149 1 1 0 649.6229831464125 650.0856401481756 653.7550295973297 0 0 0
150 1 1 0 648.3447791420185 649.5566659558917 653.8890357222708 0 0 0
151 1 1 0 649.9323814648886 650.550237045575 652.4706626553078 0 0 0
152 1 1 0 647.2439241201915 652.2972701433695 652.3390249807834 0 0 0
153 1 1 0 645.9878783882651 652.6570372510803 651.5774722742365 0 0 0
154 1 1 0 646.9382807562022 650.8623223520096 652.7539325869963 0 0 0
155 1 1 0 646.8343285222273 649.9624966096925 651.6258692823565 0 0 0
156 1 1 0 648.080441925208 648.4614978073503 653.0451392953679 0 0 0
157 1 1 0 647.3910443594541 648.6295793789828 651.8208387733376 0 0 0
158 1 1 0 645.7350763360423 651.5663768030366 650.3414691020744 0 0 0
159 1 1 0 646.3946122448339 650.3836874008579 650.3219900026132 0 0 0
160 1 1 0 675.914696588602 646.6697462409927 635.0711051997174 0 0 0
460 1 1 0 637.7776890339139 667.4353354315336 633.9355620268126 0 0 0
461 1 1 0 639.0960946504858 639.6893732404774 681.0276739748181 0 0 0
163 1 1 0 680.2650830974418 656.4890372781388 680.6544493125092 0 0 0
70 1 1 0 646.7298541219271 637.1893823825187 681.0035991056036 0 0 0
1416 1 1 0 675.4872901161406 648.5447311560915 632.9351699744756 0 0 0
7567 1 1 0 633.1786116687001 650.6729016655236 642.41964216132 1 0 0
167 1 1 0 676.2665865499735 645.4407370188513 634.4252729142166 0 0 0
168 1 1 0 638.9918127102951 667.2833661804948 634.8576059624721 0 0 0
169 1 1 0 667.1208286746577 663.9490396548653 673.8376027853102 0 0 0
7417 1 1 0 634.8226219201656 680.3850961488561 657.9687479091042 1 0 0
171 1 1 0 657.2337166596344 673.110269458794 661.2838333353213 0 0 0
172 1 1 0 678.2411121014427 647.4899518510668 634.7566548756893 0 0 0
173 1 1 0 679.1117906609286 648.612088668119 634.7662885504268 0 0 0
174 1 1 0 676.8194682123377 647.8167612935124 634.817617001914 0 0 0
175 1 1 0 639.5324013676991 664.5217228423527 635.4245608558587 0 0 0
176 1 1 0 639.5246710622043 663.7331225717063 638.0836674067551 0 0 0
177 1 1 0 665.8729930552165 646.1700201556058 641.8443522904637 0 0 0
1332 1 1 0 640.1290544858161 633.2474216044292 679.0842007722497 0 0 0
179 1 1 0 668.0720736502109 634.016520857231 658.6414191202116 0 0 0
1400 1 1 0 653.6515753926485 669.7056183864048 680.4908866226774 0 0 0
181 1 1 0 660.1994018892694 672.2696566540957 658.7333123754283 0 0 0
182 1 1 0 636.8795208517483 663.782170148014 638.4539656889697 0 0 0
183 1 1 0 644.7068593878836 637.3349523907311 678.3319230142944 0 0 0
723 1 1 0 638.6831091349878 635.1096916549458 681.9424766051122 0 0 0
185 1 1 0 668.2486799505301 633.1698243299304 662.2311739080739 0 0 0
186 1 1 0 669.9200191594738 633.2702670966328 668.3403635729076 0 0 0
187 1 1 0 634.7555383609272 655.0009524855502 640.2389795073676 0 0 0
7073 1 1 0 636.250852260142 680.1485885651359 663.5265983307494 1 0 0
189 1 1 0 651.0906734806188 676.2686366157192 661.1183170530924 0 0 0
1418 1 1 0 673.0238744114786 647.9419024478221 632.7908601873874 0 0 0
1861 1 1 0 647.2387331528058 637.8714631444085 682.2856301748726 0 0 0
552 1 1 0 681.0805267068512 661.4257959069138 677.7465328589724 0 0 0
193 1 1 0 664.686048395913 634.3990475739026 672.2160309966762 0 0 0
1413 1 1 0 665.5152192828675 632.8604339617656 665.5681544251266 0 0 0
7532 1 1 0 634.2735363044148 682.2044015559022 661.4795366277008 1 0 0
196 1 1 0 667.0868982704096 661.7754228180889 680.4453951694239 0 0 0
2845 1 1 0 645.2780591009426 666.0702590660624 633.8172347422178 0 0 1
198 1 1 0 655.5822473351036 636.2234876469245 677.1633270468944 0 0 0
199 1 1 0 670.7887347007146 648.3439445047336 633.8977175904225 0 0 0
200 1 1 0 667.7201715755276 662.6238610660918 673.7884672215758 0 0 0
201 1 1 0 660.0078496331593 634.4367347280598 675.6291786611839 0 0 0
202 1 1 0 636.5638105053206 657.1309307764702 643.9250596696784 0 0 0
203 1 1 0 636.3009856066267 656.37623048113 645.1081917251232 0 0 0
204 1 1 0 636.1891000370489 656.512566664591 642.6809279711939 0 0 0
205 1 1 0 634.9920320422852 655.7455384097824 642.7135882150782 0 0 0
206 1 1 0 638.4397908631233 656.2542183367613 641.3822075013805 0 0 0
207 1 1 0 637.250140020478 655.7473570818048 641.9819671201285 0 0 0
208 1 1 0 639.218486399575 655.3753768640858 640.5890162563661 0 0 0
209 1 1 0 638.3083493360579 654.3114185973079 640.010356065175 0 0 0
210 1 1 0 635.6000959779611 655.1509314708259 645.1256526504576 0 0 0
211 1 1 0 635.7985927264634 654.2117304096112 646.1244426127006 0 0 0
212 1 1 0 635.3096048392924 654.5672279612281 643.6347353979625 0 0 0
213 1 1 0 634.3404483280293 653.390336982362 643.5851613876645 0 0 0
214 1 1 0 637.2262903654937 654.3840018081817 642.1220274732176 0 0 0
215 1 1 0 636.6109219703834 653.8204891339303 643.2464277483075 0 0 0
216 1 1 0 637.9595003641575 653.6038049078727 641.235244643063 0 0 0
217 1 1 0 638.1870941190567 652.0501610980232 641.3607490858285 0 0 0
218 1 1 0 634.9617920831381 653.0738126364577 645.9271483841203 0 0 0
219 1 1 0 638.3756237174422 680.4501619293808 662.2916842912848 0 0 0
220 1 1 0 634.6721751792703 652.530740304832 644.6414229504943 0 0 0
221 1 1 0 635.4141792023183 651.1675075260746 644.424125926161 0 0 0
222 1 1 0 637.2697382724077 652.7052636209058 643.6481192589881 0 0 0
223 1 1 0 636.928593550448 651.569712900269 644.3273046448628 0 0 0
224 1 1 0 638.3642196417438 652.5859167652058 642.8833840727599 0 0 0
225 1 1 0 638.7200460775348 650.592515964836 642.6858519596869 0 0 0
226 1 1 0 655.2484618811076 667.7680998551434 659.1004126943111 0 0 0
7017 1 1 0 633.5219576371584 680.4274507566482 668.3713198731559 1 0 0
228 1 1 0 641.666961094265 660.2896064622396 639.4068591021352 0 0 0
133 1 1 0 669.8315567353401 632.7781352491463 665.9785631776595 0 0 0
230 1 1 0 641.7917445642631 663.6904716060515 635.1820636916445 0 0 0
6780 1 1 0 633.0418971976909 681.0967425403372 656.6123753906932 1 0 0
232 1 1 0 640.4772949541497 663.2852386103186 637.2445299740083 0 0 0
233 1 1 0 647.2493419942867 639.4053121392311 680.7960723987032 0 0 0
234 1 1 0 643.2524884596729 635.752388007051 679.377206675255 0 0 0
235 1 1 0 638.7672845038368 635.4607512278866 675.0090948625368 0 0 0
236 1 1 0 642.821951198985 637.4318676173675 676.9885098017356 0 0 0
237 1 1 0 642.0219672777821 637.8686400037558 678.2469266898698 0 0 0
238 1 1 0 655.1584624980952 666.5090086763729 659.7767555891758 0 0 0
239 1 1 0 656.7545581234831 668.4126499416059 661.7275483942364 0 0 0
240 1 1 0 669.3563988929551 642.9876510047322 637.3879331415133 0 0 0
11336 1 1 0 633.6799080488996 681.9241993585409 654.440554992754 1 0 0
242 1 1 0 654.355471552373 674.7208860348625 661.4126787139156 0 0 0
1313 1 1 0 650.3722197884503 635.0835185873112 680.4957359033597 0 0 0
244 1 1 0 658.6253020432974 669.6365457778328 665.0254316047738 0 0 0
334 1 1 0 633.8166982291021 659.0019934826358 640.018020476919 0 0 0
246 1 1 0 665.5296593512231 647.0402167232473 638.2993677297897 0 0 0
247 1 1 0 644.1808960932784 637.0186303597314 677.0664704227079 0 0 0
248 1 1 0 639.6576010198218 638.4518515175837 678.9867835238839 0 0 0
249 1 1 0 668.629485635984 648.1480827963859 634.6236595681249 0 0 0
921 1 1 0 674.6991025927297 646.0863452547967 632.8085062289047 0 0 0
251 1 1 0 667.0095158973539 635.2130978294307 676.8579503851579 0 0 0
442 1 1 0 666.223968073699 633.142678362372 663.1444175314297 0 0 0
842 1 1 0 643.5176304981703 681.0411163010859 661.5654876769979 0 0 0
254 1 1 0 640.7368069245098 636.3785894837697 676.3199756566206 0 0 0
255 1 1 0 641.188242292857 635.3658223545119 678.4088157872973 0 0 0
256 1 1 0 657.851012732409 668.3235643936722 662.5125222364761 0 0 0
603 1 1 0 655.4945394381532 634.8688072035536 676.6062925769301 0 0 0
1398 1 1 0 653.2634142657579 671.0232124478299 681.021799436547 0 0 0
67 1 1 0 637.6813461470142 682.0163151675649 664.1019520349465 0 0 0
358 1 1 0 640.9825791428411 634.5913706361658 681.3325246484906 0 0 0
261 1 1 0 637.6870280311431 680.0500100125696 661.0902868400731 0 0 0
262 1 1 0 640.2800288345891 635.4086536837284 677.4417432564615 0 0 0
706 1 1 0 680.953804303003 650.6616573734093 634.1602697966664 0 0 0
264 1 1 0 642.1717514579739 636.564615136737 676.1540103341848 0 0 0
265 1 1 0 636.1152760774456 635.0893800030191 679.2856582225719 0 0 0
705 1 1 0 660.5094274910123 633.676565443235 670.8407889615934 0 0 0
267 1 1 0 666.1285110963144 634.6506543876865 675.971892090061 0 0 0
268 1 1 0 645.6120723752853 678.852325867268 659.7379427676117 0 0 0
1399 1 1 0 657.1489123335477 676.6538625962814 633.2199010604007 0 0 0
270 1 1 0 654.6200272949054 669.3531664241808 679.4537320165632 0 0 0
271 1 1 0 644.406543108461 678.8210022776412 660.4902806177442 0 0 0
272 1 1 0 659.6102595168244 668.4904013277657 658.9094633991368 0 0 0
273 1 1 0 640.3351698702323 635.507460616282 675.1592347747031 0 0 0
274 1 1 0 659.9565170455154 634.4298098131458 677.0562738228049 0 0 0
275 1 1 0 664.1323576567906 645.4805654974682 644.9981469404337 0 0 0
276 1 1 0 664.0931266008225 635.7427453427061 648.1889066272591 0 0 0
277 1 1 0 659.378660067579 669.0440267873656 664.0370485446593 0 0 0
278 1 1 0 642.7731864955637 654.0875317849163 655.7130061731405 0 0 0
279 1 1 0 646.0769519250372 634.6806868818425 678.2818888070148 0 0 0
280 1 1 0 662.5438454384649 636.921783521655 646.6670423240791 0 0 0
281 1 1 0 666.4845900674163 664.2084753150295 675.1121567292032 0 0 0
282 1 1 0 658.4969367894901 668.4882303421477 657.9981459837949 0 0 0
283 1 1 0 660.0608944283331 638.9960812545157 643.0412699459795 0 0 0
284 1 1 0 667.1897148850562 635.2363234958505 679.2192867663957 0 0 0
285 1 1 0 637.8161020292761 650.6109802308217 644.6974100815077 0 0 0
286 1 1 0 668.5963965486419 646.7335697181642 634.3123109170905 0 0 0
287 1 1 0 668.707174803505 633.6362167418285 665.7925663648529 0 0 0
288 1 1 0 646.9948246301507 636.2247855142274 680.0772844588785 0 0 0
289 1 1 0 642.0199202966638 667.715498972082 634.5975689378467 0 0 0
4313 1 1 0 658.0013394571951 632.6012132029177 675.0034887693729 0 1 0
291 1 1 0 651.382253645039 673.2570046959258 658.2401376692123 0 0 0
292 1 1 0 660.4926203962652 639.8824196317214 646.6159711549349 0 0 0
293 1 1 0 654.2281513281148 676.5226140427234 659.7579246587027 0 0 0
294 1 1 0 633.4090014525344 661.0091956111814 637.9761476963042 0 0 0
295 1 1 0 641.9268531326575 664.7372136507204 634.3111201698085 0 0 0
296 1 1 0 659.0908378379556 637.5131614124823 650.2132512524674 0 0 0
297 1 1 0 644.244597509122 635.5969114630865 676.6603695462027 0 0 0
298 1 1 0 660.0753937292983 645.8609453242104 643.9059168988998 0 0 0
299 1 1 0 671.2760184013583 643.3649821918174 639.2793562549124 0 0 0
300 1 1 0 649.7001466094098 680.2892826228136 659.0050340280064 0 0 0
301 1 1 0 654.964932953921 636.3721714488887 679.4681365992082 0 0 0
302 1 1 0 658.3228357004373 637.6090428031899 653.0256871045353 0 0 0
303 1 1 0 641.9351643504247 654.7483896365302 653.4712119437052 0 0 0
304 1 1 0 668.3375648557607 634.739712365275 676.8429098551746 0 0 0
305 1 1 0 659.0670815278471 639.4260506410711 646.1770335668623 0 0 0
306 1 1 0 645.7522281090637 635.3746474214586 679.5483666186187 0 0 0
307 1 1 0 650.5946539363598 679.7913238723861 658.0337445930576 0 0 0
308 1 1 0 645.6065427265391 652.3373703511286 655.016562207922 0 0 0
309 1 1 0 663.2665141017455 634.8445870930681 672.5479220134995 0 0 0
1147 1 1 0 656.7456206106577 634.1975988395538 676.2947520910302 0 0 0
311 1 1 0 637.6980395635445 637.7607550281525 677.7100180496637 0 0 0
312 1 1 0 637.6591208461839 652.114226137765 649.6865673684681 0 0 0
313 1 1 0 662.4143077048046 638.3315378137097 647.2000494354231 0 0 0
314 1 1 0 661.6563885361535 638.6409125732072 648.2713419593681 0 0 0
315 1 1 0 660.8002570960534 639.6926052413725 647.9496631499733 0 0 0
316 1 1 0 657.1228129650594 640.416410607708 647.7073808999097 0 0 0
317 1 1 0 665.0221943298045 636.2559519949932 651.8489260348949 0 0 0
318 1 1 0 652.9726584302417 674.9101541188323 661.8120068831349 0 0 0
319 1 1 0 637.1507066976254 660.470711870932 639.783090801629 0 0 0
320 1 1 0 638.5552937353613 666.6692401117969 636.0761761127451 0 0 0
321 1 1 0 661.8239287853776 636.8301089517922 651.6866101633085 0 0 0
322 1 1 0 671.7696359986962 661.0576301472955 677.6902198351489 0 0 0
7099 1 1 0 632.7690528622178 658.9001658054021 639.1344319510597 1 0 0
324 1 1 0 659.7322318335114 637.0368324766837 675.2630911258066 0 0 0
325 1 1 0 666.5541210095711 659.9534072762087 677.186089043741 0 0 0
1281 1 1 0 635.8369194135657 681.2130589005594 660.1404510670745 0 0 0
327 1 1 0 671.3655276803063 641.7142836713905 637.0324456204024 0 0 0
328 1 1 0 640.9534578008692 654.4925584540518 652.4154728296799 0 0 0
329 1 1 0 635.6072411894742 663.168192727853 638.124515160885 0 0 0
330 1 1 0 655.6308987741114 673.0853573073371 659.4564577569579 0 0 0
1401 1 1 0 654.3211552273262 671.9352640278037 681.3648444982105 0 0 0
332 1 1 0 658.6141146251633 641.465718354863 643.5428699836203 0 0 0
333 1 1 0 645.3805706900607 653.9629668088955 650.9270739634565 0 0 0
559 1 1 0 654.1225937156491 634.4951077145408 676.7316831964046 0 0 0
4326 1 1 0 637.8753934112486 681.9107126052518 655.8571958270904 0 0 0
336 1 1 0 662.0334677136747 638.4824799782575 649.7729213272286 0 0 0
1491 1 1 0 655.4827169702099 637.464066381984 680.5528693429579 0 0 0
338 1 1 0 658.0147692240196 638.362120888764 649.5584829218554 0 0 0
339 1 1 0 667.8125605843888 647.2875645012978 638.8515012228687 0 0 0
340 1 1 0 670.108477569353 643.6556772770441 640.0068609202831 0 0 0
341 1 1 0 635.1422012382609 663.3659657867918 636.8010469505087 0 0 0
342 1 1 0 659.6986073058802 666.5677246038822 671.737061576292 0 0 0
343 1 1 0 656.1588112999316 667.1797960675827 677.7495193508037 0 0 0
344 1 1 0 654.9531135886175 641.327857396586 648.1274344847992 0 0 0
192 1 1 0 655.6188728254987 671.2227336951433 681.34064393141 0 0 0
346 1 1 0 650.5560929223377 677.2961090622479 657.846238860581 0 0 0
347 1 1 0 666.8549944732883 661.5152814774937 673.8810465154219 0 0 0
348 1 1 0 668.0095050223939 642.8177301088604 639.1998029970267 0 0 0
349 1 1 0 661.7191002513014 635.5985749877766 648.4827085936835 0 0 0
350 1 1 0 638.0462135715266 636.7177052689459 675.5094874156232 0 0 0
351 1 1 0 670.9802174725278 662.6324308310236 676.1846825782244 0 0 0
352 1 1 0 659.2910272579378 636.1266023391861 674.318642041345 0 0 0
353 1 1 0 654.9419647030202 665.2265259859463 672.8564860542434 0 0 0
354 1 1 0 662.4980967137903 634.4703587338846 678.7975733022811 0 0 0
1176 1 1 0 681.5680141415559 663.3244171435275 671.7024313895245 0 0 0
3410 1 1 0 667.8617333199219 634.0264097489463 679.0135410343864 0 1 0
357 1 1 0 640.0087702923864 638.8394462437935 680.3152283584529 0 0 0
6681 1 1 0 634.0050389754973 681.024024478976 655.486987932362 1 0 0
381 1 1 0 636.7988532900054 636.6155770372161 681.5030871131961 0 0 0
360 1 1 0 668.0622563429195 642.9212695660945 634.4387344881065 0 0 0
361 1 1 0 653.2787158377952 669.5761337928774 661.1141148611952 0 0 0
1135 1 1 0 656.3381102197403 668.146552820127 681.8943051175544 0 0 0
363 1 1 0 634.996889857226 650.7549457741042 646.7486808635311 0 0 0
364 1 1 0 640.5238925465596 650.4285352970498 647.5739772572451 0 0 0
365 1 1 0 664.5393717902895 638.8850461096998 648.8336063504788 0 0 0
366 1 1 0 662.546703593827 635.8731567533846 653.6614029570657 0 0 0
367 1 1 0 665.1662623413779 643.0394070418566 639.4638595092606 0 0 0
368 1 1 0 661.724976285315 642.1951622615865 644.4871349963281 0 0 0
369 1 1 0 667.2742332815955 663.5273324589393 676.1807978571476 0 0 0
370 1 1 0 636.6664384294318 636.4533451543758 675.477571338336 0 0 0
371 1 1 0 657.5171651352524 667.6181607271386 658.4854057678091 0 0 0
372 1 1 0 664.793238501129 638.2500376434191 642.4756590091844 0 0 0
373 1 1 0 653.241778723983 668.5885441977858 659.8854120878051 0 0 0
374 1 1 0 653.0652260800035 671.0116692546659 660.4391705268254 0 0 0
375 1 1 0 652.6595959598166 671.3727126730479 657.8472501285202 0 0 0
376 1 1 0 654.4567146027113 669.9852660283584 658.4675630120914 0 0 0
377 1 1 0 657.6449526934692 635.2142092549681 675.9534811081277 0 0 0
378 1 1 0 662.7798987802514 639.4032852289195 646.3891866232774 0 0 0
379 1 1 0 654.2075026132447 668.6833136264994 658.9197920536495 0 0 0
380 1 1 0 636.5225194568485 637.2992584576461 680.2529461612256 0 0 0
3028 1 1 0 649.1226887087508 681.5771061154637 658.9635821977892 0 0 0
382 1 1 0 664.4017061350097 644.2435393674826 645.6777653419019 0 0 0
383 1 1 0 658.109003499587 667.1569152307424 663.088795176251 0 0 0
384 1 1 0 636.5728230553411 636.9311982369173 677.7857570797345 0 0 0
385 1 1 0 661.5935254683469 644.6973968204513 642.431062613311 0 0 0
386 1 1 0 665.5299525442272 661.8049946383463 674.41153813446 0 0 0
4316 1 1 0 669.6205465660654 633.3646507405555 673.114508798453 0 1 0
388 1 1 0 677.6829572472128 661.0280278565913 676.6789861155769 0 0 0
389 1 1 0 660.9532023515037 639.3210035827003 650.6664359763698 0 0 0
390 1 1 0 651.1086020392507 674.6166107879229 658.1494412321632 0 0 0
391 1 1 0 663.4599119547718 639.8453039550983 652.0615820817152 0 0 0
392 1 1 0 663.3857343215439 638.6030596977267 652.6715675115927 0 0 0
393 1 1 0 668.8460354800626 640.012911022953 641.0239096035637 0 0 0
394 1 1 0 664.9247986906406 643.1335941021359 644.8449183768892 0 0 0
395 1 1 0 664.3826182190408 645.2519878658119 643.5420975738407 0 0 0
241 1 1 0 670.5653938320113 632.7943900777054 659.1333204993704 0 0 0
397 1 1 0 666.7858564045247 647.6576757812562 637.9658396040805 0 0 0
398 1 1 0 645.1483713857891 653.3751721345435 653.8114121414092 0 0 0
399 1 1 0 666.2467138682574 642.5477202480586 640.4007413804012 0 0 0
400 1 1 0 643.3249872754392 651.3156111889085 650.299575142205 0 0 0
401 1 1 0 639.9367296966574 661.7975339018451 639.4250084946553 0 0 0
402 1 1 0 659.1823012941622 636.9687401756162 647.9232707576954 0 0 0
403 1 1 0 639.3927124696361 634.3639762353301 677.1645111565615 0 0 0
404 1 1 0 662.1153989335131 637.7218667180294 652.8915062303915 0 0 0
405 1 1 0 670.7752252208182 640.9459183807724 639.6865293133385 0 0 0
406 1 1 0 643.8102635138272 651.7117410890598 652.8350208989625 0 0 0
407 1 1 0 671.5025782729176 644.1923207866778 637.8488995464221 0 0 0
408 1 1 0 643.5801890974469 655.2572483894792 655.626988362328 0 0 0
409 1 1 0 641.9450464344119 652.4789760065703 654.1759702675217 0 0 0
410 1 1 0 669.1401374183099 647.1579997566823 638.2351814829027 0 0 0
411 1 1 0 659.4534084661614 671.4500742907494 660.7003162775875 0 0 0
412 1 1 0 672.7237108202465 661.3734800954886 680.1237940441085 0 0 0
3463 1 1 0 643.1364494129293 681.9107815806108 656.7931252091042 0 0 0
414 1 1 0 656.4291560580981 642.1539094646107 646.2082196567304 0 0 0
415 1 1 0 651.1826650287314 672.2756169618114 659.3578617729146 0 0 0
416 1 1 0 644.0722727586732 652.121230128214 655.2222865579289 0 0 0
417 1 1 0 658.0725106587292 636.2144821739605 676.9921223025244 0 0 0
418 1 1 0 635.5009204597437 662.0151775325633 638.8774383653717 0 0 0
419 1 1 0 665.8935735116798 645.6617401499391 636.2832217385352 0 0 0
420 1 1 0 658.306891546453 640.2429884129017 644.1171628507685 0 0 0
421 1 1 0 669.8700904418888 644.9211466304812 635.6782510752283 0 0 0
422 1 1 0 670.8138735990722 645.4984075247277 637.7028519909238 0 0 0
423 1 1 0 661.1703505941043 640.3532585972349 651.8700831789645 0 0 0
424 1 1 0 660.7875694466708 634.051164423087 655.2095794884658 0 0 0
425 1 1 0 659.5603060001376 644.221033082557 646.9753379196185 0 0 0
269 1 1 0 641.8745497115611 682.2138300975155 660.2052163215379 0 0 0
427 1 1 0 670.7317261692806 643.071452014474 636.8218435890744 0 0 0