LAMMPS data file via write_data, version 2 Aug 2023, timestep = 50000, units = metal

19368 atoms
1 atom types

630.7768822929108 737.6571177070919 xlo xhi
631.2529650476545 737.8900349523497 ylo yhi
631.129014890034 738.0139851099701 zlo zhi

Masses

1 12.0107

Atoms # full

1 1 1 0 637.192307338124 661.9636781882061 651.818157384591 0 0 0
2 1 1 0 634.2665722312909 635.5134506845679 676.0376384852955 0 0 0
3 1 1 0 633.0613397176801 679.0563814725084 641.5768280921194 0 0 0
4 1 1 0 634.4836387964642 663.6365712554918 658.4242441826767 0 0 0
5 1 1 0 638.5561277183493 634.1939679213651 673.6723310647218 0 0 0
9730 1 1 0 684.093742732663 666.3041191465795 681.2806520097217 0 0 0
1058 1 1 0 642.9993584579821 632.3192370984042 684.1281307315842 0 0 0
11898 1 1 0 631.4899337629895 678.0541572837134 643.2942923654209 1 0 0
9 1 1 0 677.1739023429653 666.8997358659943 661.8857137965606 0 0 0
10 1 1 0 672.1370856999449 681.5637200161723 655.2358504713452 0 0 0
11 1 1 0 653.6096983132516 634.277358527137 633.2221899178219 0 0 0
350 1 1 0 676.3311686337403 638.0371700164794 632.2082497150535 0 0 0
6799 1 1 0 656.7554630047698 631.7190059003262 642.7378464805307 0 1 0
14 1 1 0 674.8687776883191 681.3751260307812 657.6782075053488 0 0 0
15 1 1 0 658.9462341182755 637.7722859421729 640.8829122940399 0 0 0
16 1 1 0 673.566954701246 647.9988690461614 632.689619493762 0 0 0
17 1 1 0 651.6994111304832 632.971273898956 683.4314362173907 0 0 0
18 1 1 0 667.5530848349516 638.7878485761123 644.313968802813 0 0 0
19 1 1 0 668.4548194900611 649.9167440098502 650.1080078565267 0 0 0
20 1 1 0 669.0649443074824 650.8300629239551 649.2353075764669 0 0 0
6920 1 1 0 632.8648863488077 633.5910323911392 659.2121331820908 0 1 0
22 1 1 0 667.7799391203451 644.5248979880965 645.0586552286456 0 0 0
23 1 1 0 648.7304221933601 634.550183215541 634.8096068114162 0 0 0
1092 1 1 0 667.617835078977 634.249086121043 631.338944883175 0 0 0
25 1 1 0 635.9153444934243 663.2101809358625 654.735740765289 0 0 0
26 1 1 0 665.6180220962979 639.2078335567426 645.6498722316162 0 0 0
27 1 1 0 635.5723458403153 674.3564526591045 638.6015494106161 0 0 0
28 1 1 0 667.9832191839803 648.6855820357616 649.5310558218238 0 0 0
29 1 1 0 680.2531282757851 674.9514772275943 661.2876794515882 0 0 0
30 1 1 0 668.0124888871053 641.0668276337083 643.5857539667026 0 0 0
1294 1 1 0 663.3821723837882 632.0676453863812 674.2744475976516 0 0 0
32 1 1 0 667.786448947528 642.4643342746244 643.7403901700787 0 0 0
33 1 1 0 667.9132118871856 645.0917750093031 646.3089578972669 0 0 0
34 1 1 0 667.9839508593702 643.0756540708857 644.9444933387587 0 0 0
35 1 1 0 632.2474403500236 674.405741224022 637.9144054723046 0 0 0
3578 1 1 0 663.4284102633837 680.5386429084999 684.0022249297209 0 0 0
37 1 1 0 660.8940334640105 636.9454953757381 635.4323016492714 0 0 0
38 1 1 0 663.3384471980025 637.0694519039885 635.2419479818483 0 0 0
39 1 1 0 633.8031734794974 669.4878762676808 676.572943669991 0 0 0
40 1 1 0 667.539149375239 640.8154627812236 645.8731511847689 0 0 0
41 1 1 0 678.6004662909388 647.3194354809158 633.6854484519995 0 0 0
42 1 1 0 667.92986171335 640.1706530400365 644.6407037160583 0 0 0
43 1 1 0 667.0502471332793 646.1200677272371 648.6379762030803 0 0 0
44 1 1 0 644.6036968825233 635.0592273997856 680.0209177847784 0 0 0
45 1 1 0 664.4083050792515 641.3019031009097 645.5969231447248 0 0 0
46 1 1 0 665.3731964699903 641.3543646322436 646.6814756444694 0 0 0
47 1 1 0 666.6704096169677 646.6379904316585 649.8781755256726 0 0 0
5976 1 1 0 650.3384137803534 632.2562413886033 641.5717794207485 0 1 0
49 1 1 0 650.4932605742217 633.6828188771409 639.5321457161638 0 0 0
50 1 1 0 665.82590010017 640.5637853259544 642.9500816158993 0 0 0
51 1 1 0 666.6608411190485 642.8332506837803 643.0193481173877 0 0 0
52 1 1 0 665.617559525497 641.9694625979517 642.91962708301 0 0 0
53 1 1 0 667.9978597604501 646.472670087997 646.5324546405864 0 0 0
54 1 1 0 667.3411710629695 647.7710876896825 650.3515403597189 0 0 0
55 1 1 0 667.7713246694094 647.0018821955773 647.8056182987638 0 0 0
56 1 1 0 664.5428523677696 644.5215118703787 643.8989247201018 0 0 0
57 1 1 0 665.4598646138097 648.5763895584339 646.0675819212793 0 0 0
58 1 1 0 665.199670780092 646.4395036072665 645.2043770491035 0 0 0
2879 1 1 0 639.0239131977834 674.6267816199295 631.1370000310751 0 0 1
84 1 1 0 659.7283855318677 632.3710709370455 644.7010153225369 0 0 0
61 1 1 0 663.5605449474183 643.2384328007496 647.5766312567848 0 0 0
62 1 1 0 666.3121764641882 640.2778950604645 646.4489078853188 0 0 0
63 1 1 0 667.1132517345812 642.9177883001304 647.1018788201327 0 0 0
64 1 1 0 662.5264060487642 643.8513480168884 648.3634218895344 0 0 0
65 1 1 0 664.927260133429 643.2338109763853 648.1221293073336 0 0 0
66 1 1 0 653.1143601629217 634.4474273690778 638.8418377820376 0 0 0
67 1 1 0 664.7100043205438 645.2832084550118 649.7130324935413 0 0 0
68 1 1 0 676.5968165141803 653.5452335155327 632.8763370668852 0 0 0
69 1 1 0 665.538020587289 646.1025554559217 650.5078330911111 0 0 0
70 1 1 0 638.260679462807 666.3911891649853 653.3190321367049 0 0 0
71 1 1 0 637.4651213736396 636.030044972563 653.329265794437 0 0 0
72 1 1 0 666.4749017596686 634.0187705712299 632.2019556800312 0 0 0
73 1 1 0 665.7968785692531 642.4776426098332 647.3612104206305 0 0 0
74 1 1 0 660.5105390566446 632.98527644725 643.6538358602526 0 0 0
75 1 1 0 680.4229960696113 668.1853997897338 658.8992287845398 0 0 0
76 1 1 0 659.0570067954875 632.9593225194035 633.2587782669608 0 0 0
77 1 1 0 635.6136191370713 660.654580717893 657.8816724836045 0 0 0
78 1 1 0 659.5001847780428 635.9832404309137 646.8454379369881 0 0 0
5444 1 1 0 657.5793241669868 684.2683610397784 655.9564334429401 0 0 0
80 1 1 0 650.1872945266158 634.1376151781137 637.164935436385 0 0 0
81 1 1 0 639.6661109384811 633.9506391661099 674.562061397526 0 0 0
82 1 1 0 633.8066439475999 636.5111118739758 659.6872317757079 0 0 0
83 1 1 0 678.7123074934626 682.1854110473562 654.3818702915446 0 0 0
59 1 1 0 672.6094966490039 653.5931888628638 631.824299838046 0 0 0
85 1 1 0 633.9151829855397 635.1000520465393 652.8894026883883 0 0 0
1101 1 1 0 631.1315902948918 663.3618618660847 654.0383853727817 0 0 0
87 1 1 0 632.328931374824 678.5903763622072 635.3937901766765 0 0 0
6805 1 1 0 650.1558799839878 632.040987482768 642.9198301725305 0 1 0
89 1 1 0 678.1330875257937 682.7085668785846 655.5298118085343 0 0 0
90 1 1 0 672.2706717628868 682.1764946957247 658.2704545605799 0 0 0
91 1 1 0 633.7013161462501 666.3576088593745 673.2728323942408 0 0 0
92 1 1 0 675.5647887110508 645.386232553006 632.6884253268834 0 0 0
1868 1 1 0 637.5239785479927 631.4107251021676 679.6940198450865 0 0 0
1974 1 1 0 633.5714750448137 676.8428098338003 632.2330386053382 0 0 0
95 1 1 0 680.3102203949909 672.9706389386747 659.915164995649 0 0 0
96 1 1 0 681.9705574253277 682.809903977641 657.2632948692674 0 0 0
97 1 1 0 651.1202344296114 635.0522339662733 635.0780181024768 0 0 0
98 1 1 0 664.7421065555023 678.8235068571355 631.8281339308551 0 0 0
99 1 1 0 655.9725273281596 635.2638106863302 637.769888319081 0 0 0
2353 1 1 0 655.985920327003 644.9512190445097 683.6710663394276 0 0 0
101 1 1 0 633.2575618557884 636.2133859313183 653.4479334181062 0 0 0
102 1 1 0 632.6847013602779 662.506698340224 649.8165795881578 0 0 0
17121 1 1 0 630.7838297562619 632.8667217557544 658.4416444600963 1 1 0
104 1 1 0 642.5650100671206 633.1288570318128 677.6735470452755 0 0 0
105 1 1 0 654.1559401299647 634.420393308496 642.3441893219966 0 0 0
106 1 1 0 680.2680822841305 678.8196114461506 658.3548131978297 0 0 0
2306 1 1 0 630.8120589859368 637.0671522626056 662.2652070771799 0 0 0
108 1 1 0 637.5140101161043 666.334948634453 666.5563475554933 0 0 0
1028 1 1 0 631.2680072783112 635.2902082981035 652.4174074734536 0 0 0
9735 1 1 0 631.1913770241804 683.9762011369774 648.0434137090084 1 0 0
11791 1 1 0 631.108209145897 681.8678115040678 645.9157608085951 1 0 0
112 1 1 0 640.1206708224533 675.5247584804586 633.5283214811302 0 0 0
113 1 1 0 679.8979712715167 667.3409263094944 661.2779624056768 0 0 0
114 1 1 0 680.4447159464089 679.9459534670378 662.0890351468722 0 0 0
115 1 1 0 656.3125738563323 636.0175500895012 632.2463443478804 0 0 0
116 1 1 0 657.8759213756741 633.74468580194 633.2655325605435 0 0 0
117 1 1 0 678.4693721874164 671.5754139203842 661.8352627850842 0 0 0
118 1 1 0 633.7562951753105 679.0135924122407 633.3370379880754 0 0 0
119 1 1 0 679.299984392374 682.1210398181706 658.1826124925294 0 0 0
120 1 1 0 657.6640802655232 634.9299961987675 633.8963312758365 0 0 0
121 1 1 0 676.8310195121569 668.2416974225687 661.9943430080224 0 0 0
122 1 1 0 659.4710439457764 676.8785712732627 632.1032711485742 0 0 0
433 1 1 0 679.285430032556 684.4099582683107 657.9389478000494 0 0 0
2146 1 1 0 656.1423963998843 643.9377855900822 682.9080964092202 0 0 0
2641 1 1 0 631.875150105428 666.3062309169945 684.4807681099782 0 0 0
126 1 1 0 635.2496528817758 635.0593745871569 671.3730679830268 0 0 0
88 1 1 0 631.3656444777993 661.5694697316641 655.521275642955 0 0 0
128 1 1 0 677.8869203292774 683.5859445250803 653.2288261583194 0 0 0
129 1 1 0 643.1722627885733 634.2670237806537 678.3264770286684 0 0 0
1758 1 1 0 636.5266891694394 631.3685106258312 678.7531821336048 0 0 0
131 1 1 0 632.6408747509523 670.3153348609816 648.7116064165 0 0 0
132 1 1 0 636.7433507794991 635.7499420285134 675.9700419853083 0 0 0
133 1 1 0 678.3011682257855 679.5018397802851 661.084680818644 0 0 0
134 1 1 0 675.6534302059946 654.5962798180071 632.9319397400299 0 0 0
135 1 1 0 633.1433787680694 679.7291625896313 643.8704198231214 0 0 0
136 1 1 0 635.1398684264682 668.12857326001 672.3120728534043 0 0 0
137 1 1 0 671.4030024450248 657.2086577769743 633.8300437082186 0 0 0
138 1 1 0 672.5115301889862 657.6314728026022 633.0294119004932 0 0 0
139 1 1 0 680.6330883643808 683.199543611468 654.3947462505521 0 0 0
140 1 1 0 673.6092924607696 656.5605116460227 632.9827854917953 0 0 0
141 1 1 0 633.2664594148356 680.3020519551229 648.25406943454 0 0 0
142 1 1 0 644.6888541052627 635.467134514774 681.6659417067032 0 0 0
143 1 1 0 671.6320462189951 656.4910298982425 635.0436787434161 0 0 0
144 1 1 0 669.2352852920196 647.1334816101535 642.9653501890901 0 0 0
145 1 1 0 668.7172388403313 647.8313893712198 644.1708782229928 0 0 0
146 1 1 0 668.5561337364834 646.250466280081 642.1434271883576 0 0 0
147 1 1 0 666.6802788311034 647.4673026052897 642.966733708953 0 0 0
148 1 1 0 667.0740808282554 641.7829245768771 641.2767915965236 0 0 0
149 1 1 0 666.5692873128556 644.1683170323886 642.0373682444446 0 0 0
150 1 1 0 667.7744173546312 643.2529572232485 641.423045979498 0 0 0
151 1 1 0 666.6610733774429 644.5959701640522 640.4987160019654 0 0 0
152 1 1 0 667.1513973552601 642.2764573751263 639.786830685425 0 0 0
153 1 1 0 666.954888491989 643.5927244967202 639.4895285692585 0 0 0
154 1 1 0 668.1665438759265 649.1602867062202 643.8426356757204 0 0 0
155 1 1 0 668.5486777465635 650.4863344802499 643.7736397521489 0 0 0
156 1 1 0 667.0118921570898 648.8620036712294 643.0431592810577 0 0 0
157 1 1 0 667.1003023384476 649.3900755365557 641.706184066528 0 0 0
158 1 1 0 667.2586259535722 646.8217431893356 641.4823411658738 0 0 0
159 1 1 0 667.2202395302188 648.3508883952308 640.8005906985629 0 0 0
160 1 1 0 666.9395730798487 645.9390155528615 640.2616958989972 0 0 0
161 1 1 0 667.3630091603845 646.3301668284653 639.0024632911837 0 0 0
162 1 1 0 667.7031775399696 644.0201904903744 638.3746452941236 0 0 0
163 1 1 0 667.4403430273293 645.3480923225417 637.9898718776165 0 0 0
164 1 1 0 668.2810928083175 651.2842413780875 642.5696087248522 0 0 0
165 1 1 0 668.6101046425425 652.6712886200607 642.298143597797 0 0 0
166 1 1 0 667.8056400039359 650.5722774761483 641.497586916456 0 0 0
167 1 1 0 668.2812373822529 650.8620106411961 640.2341742393917 0 0 0
168 1 1 0 667.6916868355399 648.5919410859603 639.5246341252166 0 0 0
169 1 1 0 668.259046236377 649.8767100150582 639.2604509961849 0 0 0
170 1 1 0 667.747550641359 647.6614091332438 638.5717106398887 0 0 0
171 1 1 0 668.4939296779739 647.8447696569771 637.3744001976472 0 0 0
172 1 1 0 668.1031797862826 645.5674066543246 636.7948558907733 0 0 0
173 1 1 0 668.6558801199315 646.8085944887068 636.4686257743533 0 0 0
174 1 1 0 669.0183796983921 653.1774699161226 641.0052707716411 0 0 0
175 1 1 0 668.921969170667 652.1226572293306 640.0300445759522 0 0 0
176 1 1 0 669.0788911176287 650.0677726030813 638.1033661901389 0 0 0
177 1 1 0 669.0908497529598 649.0649712527871 637.1328918188528 0 0 0
178 1 1 0 669.6181851204525 646.8407779645265 635.4228350358128 0 0 0
179 1 1 0 669.4763072249086 641.554821457712 639.706657990518 0 0 0
180 1 1 0 668.1947964238584 641.6529373031567 639.0361844304573 0 0 0
1674 1 1 0 681.0565476205401 683.7467232282299 661.7514797054465 0 0 0
182 1 1 0 669.8368422008155 642.8770083654208 640.4314345645472 0 0 0
183 1 1 0 631.5416378092758 674.9598714453854 640.1389546621726 0 0 0
681 1 1 0 677.7862421420314 646.6237112297863 631.4942798510252 0 0 0
185 1 1 0 633.1464760304053 676.2287433946807 646.5975962514907 0 0 0
6855 1 1 0 633.9584096333256 632.7330117863673 659.4131996968605 0 1 0
187 1 1 0 644.8135304402443 636.1656873319716 679.1168164715478 0 0 0
5025 1 1 0 640.0057238581 676.351185399426 632.363370739907 0 0 1
189 1 1 0 668.1769826333245 641.9149481438625 637.5809803010109 0 0 0
190 1 1 0 669.0026353342672 643.2762919754235 637.5794901937912 0 0 0
191 1 1 0 670.6128563014361 643.6314795431981 639.5692216781699 0 0 0
192 1 1 0 670.4840191409248 643.0981059573396 638.1171619602288 0 0 0
193 1 1 0 675.7079194277109 651.4609836414174 632.2980587399486 0 0 0
194 1 1 0 671.800332710661 645.6143575725088 638.8638225195766 0 0 0
11788 1 1 0 631.4754460401315 681.6767912735384 638.8326142011198 1 0 0
196 1 1 0 667.8289698312809 642.2357464239724 646.0954944417499 0 0 0
197 1 1 0 651.787513572029 633.7331894710046 643.2191274079452 0 0 0
198 1 1 0 632.795366214068 674.7391928902158 676.6255148548706 0 0 0
199 1 1 0 668.9285472330764 644.4460879673366 636.4737920339619 0 0 0
200 1 1 0 669.9010462474315 644.4667385837569 635.5190162735364 0 0 0
201 1 1 0 671.3843044083295 643.8317561422556 637.236086798329 0 0 0
202 1 1 0 671.0958869889128 643.7926560059697 635.8939329415151 0 0 0
203 1 1 0 672.1557976003977 644.8948861077423 637.7121082358638 0 0 0
204 1 1 0 673.0612474321796 645.3911835837544 636.7921611174322 0 0 0
205 1 1 0 672.8331651226218 647.5622114313695 637.9058060292057 0 0 0
206 1 1 0 673.3584265595495 646.7311494662274 636.9583629808402 0 0 0
207 1 1 0 667.963175237264 648.349459824479 648.1685446973338 0 0 0
208 1 1 0 639.713601840715 634.5858732546529 679.6028503882851 0 0 0
209 1 1 0 670.1156530143635 645.6758505735229 634.810819431718 0 0 0
210 1 1 0 672.285863403805 643.6096411454503 634.9149261193485 0 0 0
211 1 1 0 673.3231933852305 644.6195641111933 635.5735827666331 0 0 0
212 1 1 0 638.8977101023637 633.8784726171949 678.6490375711238 0 0 0
213 1 1 0 632.9763218653113 636.4025067950862 669.4255523077142 0 0 0
214 1 1 0 669.4373861492597 654.4475846909563 640.4997565772904 0 0 0
215 1 1 0 669.8181015247816 652.2433654056154 638.9510939832211 0 0 0
216 1 1 0 669.8607741609964 651.205823163003 638.0248013472602 0 0 0
217 1 1 0 670.0026184853313 649.1654830583892 636.0392009183566 0 0 0
218 1 1 0 670.2477647037176 648.0689367383033 635.2197647104633 0 0 0
219 1 1 0 669.9672018843988 654.6016670302831 639.2273883173625 0 0 0
220 1 1 0 669.9639585265651 655.5993474983406 638.2327622024719 0 0 0
221 1 1 0 670.5397847076982 653.3957177575539 638.7233780906587 0 0 0
222 1 1 0 671.5284938902448 653.3884732406946 637.7547567103315 0 0 0
223 1 1 0 670.746677325902 651.2335681334043 636.9249268532627 0 0 0
224 1 1 0 671.7754442126853 652.2281776945405 637.0519038345266 0 0 0
225 1 1 0 670.8688198590429 650.2650616987336 635.9645429757144 0 0 0
226 1 1 0 671.9197429522623 650.3155770812893 634.8740402066064 0 0 0
227 1 1 0 671.2930865714219 648.0980908175031 634.2313687158943 0 0 0
228 1 1 0 672.310938418891 648.9866273705235 634.3323263169113 0 0 0
229 1 1 0 670.7536815349703 655.5021998873109 637.0583419296682 0 0 0
230 1 1 0 670.5070455503251 655.9844460901711 635.7476331025115 0 0 0
231 1 1 0 671.8002026844302 654.5685612968522 637.100349931832 0 0 0
232 1 1 0 672.7616623028786 654.6159557793703 636.0598592354611 0 0 0
233 1 1 0 672.8848901666664 652.1418692541822 636.2730225926708 0 0 0
234 1 1 0 673.0711896896073 653.3557512118526 635.3641947284117 0 0 0
235 1 1 0 673.3195527795851 650.774876849647 635.7265679755488 0 0 0
236 1 1 0 674.44566363264 651.0131698408982 634.710104028494 0 0 0
237 1 1 0 663.4636839657791 678.5703901371587 632.5935553518348 0 0 0
238 1 1 0 675.6062762626556 668.0790785250863 659.6764912672977 0 0 0
239 1 1 0 672.8501896174166 655.7725704772517 635.2579702274745 0 0 0
240 1 1 0 673.8391465576948 655.7576501175548 634.1845481715934 0 0 0
241 1 1 0 674.4873903392079 653.4876770276464 634.8086557249192 0 0 0
242 1 1 0 674.8086557694645 654.696227038716 634.1135685647596 0 0 0
243 1 1 0 675.1516011697738 652.2534121612991 634.5194144270818 0 0 0
244 1 1 0 649.9117508562388 635.2278767805058 632.8474955592691 0 0 0
245 1 1 0 645.614668430722 637.2113730313488 679.9592314306633 0 0 0
246 1 1 0 644.2246153704217 636.8952582868376 680.8735741747042 0 0 0
247 1 1 0 666.5822468738585 634.6225862966004 633.6090430708936 0 0 0
248 1 1 0 643.044460865567 636.8135822198467 679.964392790382 0 0 0
249 1 1 0 655.8804542319137 679.2046822271158 631.7259362385331 0 0 0
11201 1 1 0 631.3679901060634 680.3231742378221 638.8157720087321 1 0 0
251 1 1 0 632.7597363140761 669.5734686728111 643.2333407632248 0 0 0
252 1 1 0 671.1283061797467 645.6496651913461 633.892579567449 0 0 0
253 1 1 0 672.0961590675522 644.6059232033159 633.7078014026208 0 0 0
254 1 1 0 641.6484337870303 636.418773727212 680.0108625946546 0 0 0
255 1 1 0 669.7080070874193 653.7717442924189 634.8198258295207 0 0 0
256 1 1 0 635.1637411881823 672.7588703957213 641.6238250432367 0 0 0
257 1 1 0 668.9726759931452 652.1909159046018 632.9925259189482 0 0 0
258 1 1 0 681.4596369006971 663.8536518207225 683.1396865961817 0 0 0
259 1 1 0 636.5448607450386 664.2914017779461 665.6974038581649 0 0 0
7100 1 1 0 657.9273786084375 684.485543344943 657.2389548792487 0 0 0
261 1 1 0 640.5434840488732 635.7431790495908 679.3071632247037 0 0 0
262 1 1 0 636.0746496133404 636.1647999519321 653.0237776813497 0 0 0
263 1 1 0 633.2837554208418 634.2320289024988 670.387391594995 0 0 0
264 1 1 0 674.5588447104941 679.7608770246687 655.500008749965 0 0 0
265 1 1 0 667.3468418920194 640.5086727471938 642.3582739309593 0 0 0
266 1 1 0 671.541212625778 682.6160954531581 655.9618589566745 0 0 0
267 1 1 0 674.0386869988471 664.8307890489906 656.4182612314302 0 0 0
268 1 1 0 637.8015995852545 635.474774853921 673.8847163203646 0 0 0
6782 1 1 0 650.6736316084208 631.2682005028346 639.3594723820144 0 1 0
270 1 1 0 634.5610691826486 636.3135921469589 671.5367832494128 0 0 0
271 1 1 0 653.8885586662277 633.5034496704035 635.5853838741585 0 0 0
272 1 1 0 653.4793296910931 634.0727856231596 640.1465766770151 0 0 0
273 1 1 0 631.9251208181165 634.2683749463843 671.1390146218264 0 0 0
274 1 1 0 675.6631272741109 668.6109702315841 661.2781614908442 0 0 0
275 1 1 0 636.4427167206347 675.3718052648107 643.1609080131936 0 0 0
276 1 1 0 664.3298851703579 635.3390712111852 633.5508015252403 0 0 0
5429 1 1 0 653.4860992007021 683.3160161327303 668.1309049241346 0 0 0
278 1 1 0 671.606812951003 637.839326779326 636.6250202244511 0 0 0
279 1 1 0 659.8245880401313 637.297068531141 641.8923018642515 0 0 0
280 1 1 0 638.2424924240573 634.7905410353995 677.7316274991464 0 0 0
281 1 1 0 634.5261334304058 679.8082737012539 646.2169900086094 0 0 0
282 1 1 0 665.434787271258 644.3917348520815 648.844683893562 0 0 0
283 1 1 0 672.6806090475749 649.5968788626396 639.0486972006793 0 0 0
284 1 1 0 632.3997085011556 682.1619488093975 646.6962299173484 0 0 0
285 1 1 0 634.0878260415216 636.88982361911 654.3444968413029 0 0 0
286 1 1 0 669.9372673166519 636.9927580472463 638.1909907820351 0 0 0
287 1 1 0 638.5033033953378 662.5010761223313 651.9673735449469 0 0 0
288 1 1 0 638.6202034980275 663.847467610171 652.4059944767106 0 0 0
289 1 1 0 636.2914038210696 634.6880603446072 672.2241634832139 0 0 0
509 1 1 0 662.9573484613875 683.9162639097474 636.4844737743568 0 0 0
291 1 1 0 678.8476489042802 676.834357984613 660.6901538021839 0 0 0
292 1 1 0 643.5097356249441 636.5803539214802 678.504672110698 0 0 0
293 1 1 0 637.9828046885883 678.4877671786327 633.2920068937656 0 0 0
294 1 1 0 635.4785040015685 637.0975922085009 654.0795317898903 0 0 0
295 1 1 0 664.1383359131008 642.3706866964127 642.7732308414188 0 0 0
1040 1 1 0 669.9914946566647 684.3862252057631 654.9355568236433 0 0 0
297 1 1 0 633.177640859004 679.6221849688621 639.6944135748928 0 0 0
298 1 1 0 667.7216363780084 647.3823818247727 645.3145040852378 0 0 0
299 1 1 0 669.0233338322068 643.7463093449445 641.2559197304887 0 0 0
300 1 1 0 666.586330953696 646.6835293102941 644.3628307048494 0 0 0
301 1 1 0 666.6668400035836 644.8727572818256 648.3499347206201 0 0 0
302 1 1 0 633.1328131385997 635.5529283420972 656.8884537246429 0 0 0
303 1 1 0 636.4482683232511 661.6203501566101 652.9595161454092 0 0 0
304 1 1 0 673.7967779435913 682.6276108528386 653.2546320079148 0 0 0
305 1 1 0 631.731650536308 663.4666005845331 649.288624968263 0 0 0
306 1 1 0 660.9451017642896 635.8844785643103 634.4521364107388 0 0 0
307 1 1 0 673.5062217749603 648.8990199714976 633.7089984750327 0 0 0
308 1 1 0 676.4080706916351 665.5303130381714 657.0376682030305 0 0 0
309 1 1 0 683.1872582853437 677.2438487516217 661.9736554182923 0 0 0
310 1 1 0 633.4318075004022 661.3181510080605 657.3244244559176 0 0 0
311 1 1 0 655.3780148646447 635.4268283307161 634.534612890509 0 0 0
312 1 1 0 653.2074181180625 633.3766316515453 643.8069078933767 0 0 0
313 1 1 0 677.181451883946 680.4980512360239 655.7846053075956 0 0 0
314 1 1 0 661.9288701862113 635.0389449904701 632.4510507983446 0 0 0
10783 1 1 0 631.5651558767165 678.0394290212927 677.7256445271277 1 0 0
316 1 1 0 676.5649452833065 646.0409631938584 633.4478056953508 0 0 0
317 1 1 0 653.6072184276246 634.3452230939691 636.5871279531973 0 0 0
5934 1 1 0 632.0722031747507 633.1891622424615 658.1763493652204 0 1 0
319 1 1 0 679.4481817652044 683.0963482754396 653.4357011680113 0 0 0
320 1 1 0 635.4005850725157 635.9974698161604 675.3556265132914 0 0 0
7017 1 1 0 640.2530856952424 633.983132962727 655.6928009126609 0 1 0
322 1 1 0 667.3979156536842 644.2460669872112 647.3476410821404 0 0 0
2073 1 1 0 632.7245023047012 632.5674714352812 674.1499185473664 0 0 0
324 1 1 0 631.6124628579871 679.6005699612934 675.9179471297103 0 0 0
325 1 1 0 676.9003231968704 670.0196916052286 660.4999020570901 0 0 0
326 1 1 0 669.5505701280084 655.2666384143723 634.918069566459 0 0 0
327 1 1 0 634.8709253244823 677.4978136156855 645.7587364592822 0 0 0
328 1 1 0 634.0880134183957 673.1436167630789 637.1001764637267 0 0 0
329 1 1 0 634.900267209357 662.3824697138776 650.8575432783844 0 0 0
330 1 1 0 635.4970390983725 675.5086415492299 637.7974724983677 0 0 0
331 1 1 0 633.4194759836708 674.3726671756276 637.292540379087 0 0 0
332 1 1 0 669.3577702915189 651.0971895109464 632.1828424740976 0 0 0
333 1 1 0 634.120566025872 675.6780342534358 637.2874801762836 0 0 0
334 1 1 0 633.0435449790497 676.8414727413927 637.4365137081344 0 0 0
335 1 1 0 632.2573220244207 670.3506774613809 634.9757629212437 0 0 0
7085 1 1 0 656.1640793020495 683.6689383532822 660.9608374247944 0 0 0
337 1 1 0 660.0823602038043 683.5068855386492 657.2709819603779 0 0 0
338 1 1 0 632.5883854165677 677.2908427709294 639.8207837042778 0 0 0
339 1 1 0 632.5996061405332 675.2926041786372 641.2037370603704 0 0 0
340 1 1 0 633.222900670596 673.9244262178015 641.2972670336387 0 0 0
341 1 1 0 633.4818671036807 676.5552157936079 640.596666270518 0 0 0
342 1 1 0 634.8628663499927 676.9250807297707 640.3350144706329 0 0 0
343 1 1 0 664.2790570014673 645.445559640773 644.9553929373899 0 0 0
5618 1 1 0 640.5732105185352 633.4535078718563 652.2145180313483 0 1 0
345 1 1 0 670.8809953555224 649.0507721731323 642.3937147330776 0 0 0
346 1 1 0 634.2197157101044 636.7410465282688 657.1091445654854 0 0 0
269 1 1 0 672.766712210394 637.8915852382584 631.4924482964448 0 0 0
348 1 1 0 634.1458055526249 665.3387960460523 676.4813681723655 0 0 0
349 1 1 0 679.9340450937741 683.2585573019732 658.3946693979848 0 0 0
1754 1 1 0 631.3005620307017 672.2431854545437 673.986097172854 0 0 0
351 1 1 0 634.5006590312022 673.7360849526195 640.8727864792634 0 0 0
485 1 1 0 666.3778962943442 684.118360088052 633.743804529624 0 0 0
353 1 1 0 635.2859765515159 674.5620465830193 639.9922974813084 0 0 0
354 1 1 0 635.8028198314797 675.7842832831903 640.604104568151 0 0 0
355 1 1 0 634.1249359792262 636.3884482700727 672.9217972235789 0 0 0
356 1 1 0 678.0758442728976 676.3874905744972 655.1582649742619 0 0 0
357 1 1 0 678.6928337538084 683.2068457109871 661.5870561540964 0 0 0
4984 1 1 0 661.2422966466065 676.94411613211 683.5012625501043 0 0 0
359 1 1 0 632.6394366555893 636.2897292953912 672.9388546510581 0 0 0
1851 1 1 0 631.122283156048 634.8174068746549 656.0475091417275 0 0 0
361 1 1 0 668.9636534706045 652.6135732961959 634.4131096746545 0 0 0
362 1 1 0 672.8150696569896 683.7782216450619 653.2033012281773 0 0 0
363 1 1 0 674.6885867737439 666.4308317626804 657.9220901592531 0 0 0
364 1 1 0 660.1941747066668 633.7547958733289 633.6132459322381 0 0 0
365 1 1 0 636.6258386773223 675.5535549223132 641.7265787216979 0 0 0
366 1 1 0 678.5284585378201 666.6425384594129 661.4635403313657 0 0 0
367 1 1 0 666.686102836157 637.1904370934247 642.7334735974046 0 0 0
1705 1 1 0 631.7331068835529 673.0621553553876 631.5663088731061 0 0 0
369 1 1 0 639.9415798970832 664.4808396449581 668.8095855040249 0 0 0
370 1 1 0 656.497306416983 635.5960612391212 633.5931932314805 0 0 0
371 1 1 0 675.6178164383412 681.3757802448703 658.8864846787383 0 0 0
372 1 1 0 680.3870700650006 676.3826044910279 658.5577726671044 0 0 0
373 1 1 0 640.4268101195137 636.0637173307788 677.9327294159013 0 0 0
374 1 1 0 633.7210045653578 682.113854790284 645.9194921689075 0 0 0
375 1 1 0 633.0271417142491 633.1739582666692 676.4684334427454 0 0 0
376 1 1 0 647.0977944558712 635.8185821876169 681.1296335534715 0 0 0
377 1 1 0 663.9438188037574 643.2254317847182 643.8955885240362 0 0 0
378 1 1 0 639.1867456436606 635.8870651310472 677.2754032719639 0 0 0
379 1 1 0 640.1922214932753 635.0453273425665 675.3264150823856 0 0 0
380 1 1 0 638.5363133781311 674.2035166105844 634.5895960034055 0 0 0
109 1 1 0 634.5253077837751 683.2450896853858 645.6350918942121 0 0 0
382 1 1 0 647.7443645139763 634.6233009052216 681.0800630987677 0 0 0
383 1 1 0 681.5750552570804 669.7827907161376 660.4313700801055 0 0 0
384 1 1 0 656.0894955908137 636.2161587624428 636.7066700379747 0 0 0
385 1 1 0 637.2074498726655 673.8872760809637 634.176098456073 0 0 0
386 1 1 0 675.3285665524857 650.150856849227 632.5222479113478 0 0 0
387 1 1 0 663.4848056861637 643.6211324359537 646.2035655372839 0 0 0
2300 1 1 0 656.9300738412644 631.7533426311168 675.771782924684 0 0 0
389 1 1 0 643.7668720247827 634.0520395047934 679.5715054610505 0 0 0
390 1 1 0 664.9810693148592 647.2878336901115 646.2678289340408 0 0 0
1673 1 1 0 631.7392610138985 661.3577070913021 682.8828280014542 0 0 0
392 1 1 0 634.6847923747657 672.863834174928 646.8478436471455 0 0 0
393 1 1 0 680.990747092996 667.0669462043808 680.6138326095004 0 0 0
6192 1 1 0 639.3100746085702 632.8722475272881 652.2674937508872 0 1 0
395 1 1 0 658.8431926372855 645.0274067296215 678.9010218137288 0 0 0
396 1 1 0 675.9143235631709 671.076148249852 660.3944532476332 0 0 0
397 1 1 0 641.2922408206317 634.7733975523073 676.1795786803851 0 0 0
398 1 1 0 634.57307150508 662.3789727513597 659.0455805417237 0 0 0
399 1 1 0 666.8221685638763 645.1970758356716 644.2354857198385 0 0 0
9881 1 1 0 631.3142459046763 681.9433136069563 640.7821045808466 1 0 0
401 1 1 0 678.5131960710108 665.878425498904 660.2082026590708 0 0 0
402 1 1 0 636.0067762701868 676.5947014902353 643.8028920192147 0 0 0
403 1 1 0 631.458681698821 666.5455463025546 644.2328167851882 0 0 0
404 1 1 0 657.6601514693755 680.6992936787296 632.6192889065303 0 0 0
405 1 1 0 682.2421160155668 677.8075497622485 656.1893544983548 0 0 0
406 1 1 0 661.9414086609598 682.6190141473937 633.8517623940149 0 0 0
407 1 1 0 662.3914846379471 682.3952535146336 632.3694241427537 0 0 0
408 1 1 0 633.9651298571557 672.9465068984617 675.463124536804 0 0 0
409 1 1 0 663.4887653570705 678.7974814265672 634.6434784907768 0 0 0
181 1 1 0 631.1409244899121 671.0937907386613 636.9701130740133 0 0 0
411 1 1 0 652.136006338889 633.4506805056942 682.2113323097 0 0 0
2400 1 1 0 661.4232423750576 673.2485900334301 682.8888244237297 0 0 0
413 1 1 0 673.8360650280345 635.5494369429789 633.4704626384711 0 0 0
2719 1 1 0 668.1754300495231 676.6344535298092 631.44118532339 0 0 1
3061 1 1 0 631.1589220986016 671.7959485753393 631.3177321563079 0 0 1
416 1 1 0 679.7123406308966 671.610476353368 662.398383533299 0 0 0
2382 1 1 0 660.3023616261797 683.8020899657788 682.7224345833449 0 0 0
418 1 1 0 677.3977362386497 667.7713176660848 656.7525112177232 0 0 0
419 1 1 0 665.2798358330589 634.6211648502365 634.3877708090405 0 0 0
420 1 1 0 632.1678261368479 670.604908878847 642.5205532881337 0 0 0
421 1 1 0 634.4994967728719 634.6631959293487 677.20830139107 0 0 0
422 1 1 0 633.872530414568 664.6534225257839 677.6235229328282 0 0 0
423 1 1 0 672.2181880737694 683.1368194701736 657.2224942975721 0 0 0
424 1 1 0 635.5610216898206 636.4581162799822 656.2546025656646 0 0 0
425 1 1 0 676.5198583862003 683.4312623559906 653.0570941800485 0 0 0
7104 1 1 0 652.2874748924161 683.2671630991258 668.8488405294795 0 0 0
427 1 1 0 659.9013422571198 682.3770169435164 631.9238172853377 0 0 0