LAMMPS data file via write_data, version 2 Aug 2023, timestep = 50000, units = metal

3836 atoms
1 atom types

639.0828959416785 720.8431040583177 xlo xhi
639.6207334160088 721.0142665839903 ylo yhi
639.7869730391889 720.8480269608102 zlo zhi

Masses

1 12.0107

Atoms # full

977 1 1 0 665.8566568821027 640.1662139207186 659.0564939283544 0 1 0
2443 1 1 0 677.6412651355 650.7959260272925 652.8552057574494 0 0 0
3 1 1 0 663.3175618768214 649.7488199196089 671.2202274769346 0 0 0
1442 1 1 0 659.9184896653147 641.3671655211108 673.9381782325038 0 1 0
5 1 1 0 658.2518095124436 664.4128399669855 670.5502661519531 0 0 0
1241 1 1 0 667.9550614394677 642.1662761778796 657.462947839818 0 1 0
1366 1 1 0 664.2515509732102 646.2422630131615 667.4592004500918 0 1 0
8 1 1 0 661.4652184557604 655.0260698473197 668.8514088333682 0 0 0
9 1 1 0 654.9976335237702 662.9026262721785 671.6262342656731 0 0 0
10 1 1 0 672.2942291000069 651.9682477381523 656.2230136855479 0 0 0
11 1 1 0 657.0480779026125 664.2017436781024 671.2822994579037 0 0 0
12 1 1 0 656.1598686481425 663.1518587882288 670.8311855871458 0 0 0
688 1 1 0 668.5006396271359 654.8864072045454 645.1170065163797 0 0 1
14 1 1 0 662.7548724714147 652.3540180020199 667.9999223426748 0 0 0
402 1 1 0 665.2876544558491 649.8676182921829 666.0494683526166 0 0 0
16 1 1 0 649.6232167684508 660.7194646874068 678.7575938173115 0 0 0
17 1 1 0 674.5763828822803 653.1823581021642 650.8150256335254 0 0 0
18 1 1 0 644.9961545678522 658.169177876836 677.7409550160714 0 0 0
19 1 1 0 675.7855425502806 654.769705301153 664.2383497063302 0 0 0
20 1 1 0 674.4984217962907 654.3892406392412 660.9322181131157 0 0 0
21 1 1 0 658.5128565723845 663.5485246885578 669.4524750357469 0 0 0
22 1 1 0 654.6556190564978 663.9544330355193 672.5418541585327 0 0 0
1287 1 1 0 657.8707148063041 654.9925557024624 667.3132280503753 0 1 0
1494 1 1 0 667.485410183677 649.6535796503413 661.9723892970162 0 1 0
25 1 1 0 645.5086540324746 658.2232875264243 679.0996135449135 0 0 0
26 1 1 0 655.6508981820026 663.5347259853085 674.6002253107008 0 0 0
1478 1 1 0 661.0023896647486 644.9717317647113 667.7098101039965 0 1 0
28 1 1 0 655.8419780816931 664.2421594134111 673.3435231784883 0 0 0
29 1 1 0 659.3882592593197 664.9233655975173 671.2421465594097 0 0 0
30 1 1 0 663.889881889763 662.7388661076403 665.8903707762624 0 0 0
448 1 1 0 663.0335269796682 642.0150514304479 641.6003315492769 0 0 1
1339 1 1 0 657.0743919115444 639.9763698006424 670.5720593621722 0 1 0
431 1 1 0 676.0219272169423 651.6731654524874 656.0560904180804 0 0 0
1048 1 1 0 659.1693821881703 648.2675907617614 670.4863133532065 0 1 0
1327 1 1 0 662.6965706486964 647.7746165739372 657.3106250725174 0 1 0
36 1 1 0 673.7142452906716 655.499654853828 656.51972929621 0 0 0
37 1 1 0 675.9796183530805 655.143759446389 657.1538259034099 0 0 0
38 1 1 0 676.7152254491555 656.7683878564355 655.4633688147331 0 0 0
39 1 1 0 663.3713381384537 659.2769857081892 668.0420308191057 0 0 0
40 1 1 0 660.2951784597337 657.3624275232195 666.0618767932361 0 0 0
41 1 1 0 673.3711368418609 656.9597244375054 656.5589342774634 0 0 0
42 1 1 0 673.0468978842254 657.3994286054583 655.1864561019596 0 0 0
43 1 1 0 673.4699524100179 656.2868301722261 654.3953918035213 0 0 0
44 1 1 0 676.454384189495 653.9262603502342 652.1926431725423 0 0 0
45 1 1 0 668.0176136044688 657.2254752431163 668.7118315427496 0 0 0
46 1 1 0 660.3522216437627 654.7618146681832 669.8642777595704 0 0 0
47 1 1 0 660.6873270706332 647.7699760968077 673.4055088956821 0 0 0
832 1 1 0 671.0715546656411 657.6906728298521 647.6221960755393 0 0 1
438 1 1 0 664.7444056564347 640.3328995715674 646.1981935571613 0 0 0
50 1 1 0 662.0426327635595 647.2111707549891 673.4127072241995 0 0 0
849 1 1 0 669.8160102805285 654.555277575787 647.0669209274694 0 0 1
52 1 1 0 674.6228901698933 655.1356116027057 657.5299621564727 0 0 0
53 1 1 0 673.7752469766425 655.113876843788 655.145296354949 0 0 0
54 1 1 0 678.1010105607163 660.1853101386346 656.9245101412724 0 0 0
55 1 1 0 673.4765805493154 655.0632471619911 652.4644278837783 0 0 0
56 1 1 0 668.1286044173756 658.6369361030381 668.9076778520838 0 0 0
1354 1 1 0 675.1901380625095 648.5556697385663 658.0578892271 0 1 0
58 1 1 0 667.978998994852 661.8575834347618 668.0041612250856 0 0 0
1555 1 1 0 660.9788598129779 644.9005120052012 673.6249364226056 0 1 0
60 1 1 0 670.0316699725089 658.201550247331 662.1530264951402 0 0 0
61 1 1 0 673.8815337245325 653.1285287203374 661.3289655151957 0 0 0
62 1 1 0 676.2809412429916 655.2926901892107 655.7347503930775 0 0 0
1367 1 1 0 667.8051100206412 644.1962894026843 659.8119398460909 0 1 0
64 1 1 0 650.1181489023803 662.6852744288287 677.4619571773828 0 0 0
65 1 1 0 648.6392991349586 661.7242200161701 678.3975419693695 0 0 0
66 1 1 0 675.7955023663004 658.0062792220247 655.5554178387133 0 0 0
67 1 1 0 678.4460692753196 660.2123320476808 658.347381189962 0 0 0
678 1 1 0 674.55888701022 655.9026608176636 645.7836392658336 0 0 1
3313 1 1 0 678.5313074515196 646.337706104115 655.058998845589 0 1 0
70 1 1 0 663.0979296111417 647.9084598401913 672.669703093811 0 0 0
71 1 1 0 661.6834718932774 661.7927373709742 666.2719721667096 0 0 0
72 1 1 0 663.6374193586367 663.4103199661201 667.1625547907404 0 0 0
73 1 1 0 674.2233633624221 657.6643949725419 657.3936161381824 0 0 0
74 1 1 0 675.8978785282575 657.6287763895242 659.1101915830413 0 0 0
1559 1 1 0 659.8802436232864 649.0693763814304 671.4318609775664 0 1 0
1369 1 1 0 668.2801941641409 645.2615810931316 660.5666540029067 0 1 0
77 1 1 0 665.5742024738452 658.9077796300038 666.8718129120443 0 0 0
78 1 1 0 653.7819137483882 660.3222221287285 674.1367262708019 0 0 0
79 1 1 0 660.6066175764512 660.1718072904465 670.3989853299763 0 0 0
80 1 1 0 662.8158483168487 654.7584383118161 669.4054859591859 0 0 0
1305 1 1 0 661.5351836872002 648.291048794501 659.432728640304 0 1 0
82 1 1 0 666.0462549854344 660.463448841761 669.9522475697994 0 0 0
965 1 1 0 658.7498129791533 656.6969664702361 662.9110037612572 0 1 0
1459 1 1 0 658.2688712866715 656.2087128516856 666.6028471029156 0 1 0
85 1 1 0 662.7545329394255 659.6531247553936 666.8328324813689 0 0 0
86 1 1 0 668.228664385137 656.7414248508846 667.3819345612001 0 0 0
87 1 1 0 670.3810811721289 654.7770979605274 661.1636986638234 0 0 0
88 1 1 0 663.7342771697533 654.934582925248 668.2419798325614 0 0 0
817 1 1 0 667.3423347332323 650.469823811244 641.1806692415736 0 0 1
90 1 1 0 662.0880428752532 664.2283819021812 668.8700819562941 0 0 0
91 1 1 0 662.3369518155097 651.8606813206791 671.5244867751289 0 0 0
92 1 1 0 661.2641076218689 662.8719283381797 667.0579063838934 0 0 0
93 1 1 0 671.7654575893883 656.5091989877798 660.5770882023538 0 0 0
94 1 1 0 653.7306438095935 662.8515946373628 675.9411157936206 0 0 0
95 1 1 0 675.9770991850152 655.3308417855617 662.9324771688939 0 0 0
96 1 1 0 661.651128205688 656.9177520985385 666.0981865011016 0 0 0
97 1 1 0 674.8044569717697 652.2216357276902 661.9789296516578 0 0 0
98 1 1 0 659.0430591799064 652.6504007072036 670.1108727332589 0 0 0
99 1 1 0 675.1239193941506 653.4000130632481 652.0918330268873 0 0 0
100 1 1 0 679.0778129505396 658.4642051500157 655.2579510288859 0 0 0
1092 1 1 0 658.9122219806399 651.2514886971207 670.4575936205634 0 1 0
102 1 1 0 663.105199148288 651.2748268226452 668.818395260394 0 0 0
103 1 1 0 649.1428811139408 663.1680433984965 678.4876454544017 0 0 0
104 1 1 0 662.0574831932604 653.0986594593662 670.9332708891659 0 0 0
105 1 1 0 679.1974351913897 659.5908918845616 656.1601158665381 0 0 0
106 1 1 0 675.2706472612168 650.6952034453697 653.6294397729571 0 0 0
107 1 1 0 662.7611205034199 649.0690594220669 669.9358717224825 0 0 0
108 1 1 0 663.4872291265132 651.107164502742 671.117469182716 0 0 0
1466 1 1 0 674.5053134439183 644.359146678504 655.9298671561129 0 1 0
697 1 1 0 673.0250984638245 653.9086866374449 649.0464456833209 0 0 1
1215 1 1 0 673.2488208033873 644.2556796525629 656.5645975179124 0 1 0
112 1 1 0 668.5807318987778 655.3786693065222 662.6339526066486 0 0 0
1046 1 1 0 663.5790717890688 640.8381267314535 656.0103575144275 0 1 0
538 1 1 0 665.2538254080524 641.775047157528 640.8633652503461 0 0 1
115 1 1 0 676.2444797117496 660.3430201197149 655.3626033442213 0 0 0
116 1 1 0 676.399299943805 648.6848111298044 652.9027407693014 0 0 0
117 1 1 0 664.8147188928091 651.5164789597939 666.2346084435632 0 0 0
789 1 1 0 676.3812097865238 653.5152727642953 647.2319976851816 0 0 1
119 1 1 0 665.2781267979535 655.0040283355861 668.6626754806014 0 0 0
120 1 1 0 663.4126381559716 655.3300822572788 665.4492748481756 0 0 0
1216 1 1 0 659.6344753458717 646.749476688866 669.9173813845598 0 1 0
122 1 1 0 671.9819275187156 656.932521906952 661.9296537040761 0 0 0
781 1 1 0 663.6726941372888 640.9645131096102 642.2972060699444 0 0 1
1068 1 1 0 663.0311525164178 646.459578503708 657.7319717441159 0 1 0
125 1 1 0 650.049989688463 659.4813077570653 676.4789853626213 0 0 0
126 1 1 0 663.1762420872342 653.7618215288104 670.2568441191561 0 0 0
127 1 1 0 662.8248711243141 663.500353222013 671.0835504753832 0 0 0
1475 1 1 0 662.9099311069278 644.8947696694414 659.5912911582213 0 1 0
129 1 1 0 675.1374769985958 653.4555068790958 664.0081950911197 0 0 0
130 1 1 0 647.7995415718229 661.4216911808603 677.3043395380959 0 0 0
131 1 1 0 671.6877364694477 654.1864722726833 660.8816505740365 0 0 0
132 1 1 0 654.1980489435699 663.5667118558782 674.8172760351428 0 0 0
1359 1 1 0 667.2543045392147 639.6611482088005 658.8315647846105 0 1 0
1538 1 1 0 675.8801189130284 644.9412549117422 656.0249698597131 0 1 0
1340 1 1 0 657.6444316905959 640.6075806832037 671.7376641198907 0 1 0
2341 1 1 0 678.4681556570092 648.5931557212158 651.6999157961029 0 0 0
1077 1 1 0 657.8018335880327 652.3448088252111 668.0664683743898 0 1 0
138 1 1 0 662.3016986138696 663.6778705621357 667.5892094877472 0 0 0
139 1 1 0 664.3790451422593 652.9849835599662 666.0473592858294 0 0 0
140 1 1 0 670.3293670626293 656.176771508652 660.6001817558217 0 0 0
410 1 1 0 663.9670060005255 647.1136293768578 669.7009391589962 0 0 0
142 1 1 0 659.8576351280697 656.6037264757489 668.391261241502 0 0 0
143 1 1 0 653.5642504236388 663.7417670398597 673.5014099187918 0 0 0
144 1 1 0 654.723755245709 662.0469406854216 676.5356054989533 0 0 0
145 1 1 0 677.6386292202243 659.39833202028 659.2139116968867 0 0 0
159 1 1 0 661.3959509619259 655.4579322340522 664.1731482294192 0 0 0
147 1 1 0 672.0640432013785 655.8498875943179 662.9958851032228 0 0 0
148 1 1 0 666.9125233938357 662.6236621209141 667.3840548699072 0 0 0
149 1 1 0 661.3024976373797 660.6631627295121 671.5438541836386 0 0 0
807 1 1 0 674.7961453143519 652.3660194995886 648.590879424966 0 0 1
151 1 1 0 665.380576526136 655.1125383439309 667.1062730308764 0 0 0
152 1 1 0 662.1426442848588 650.3421042306584 669.2869175910116 0 0 0
153 1 1 0 666.357285410863 656.5795839366743 663.0836691391632 0 0 0
154 1 1 0 673.4989472572471 656.4227790291156 650.2661641292364 0 0 0
155 1 1 0 664.4229979998281 653.0567776916123 670.018386778408 0 0 0
156 1 1 0 664.2389058533136 655.7921243643617 666.5079019107657 0 0 0
157 1 1 0 674.3463530740895 655.7533743827363 658.8245606302571 0 0 0
158 1 1 0 665.8760020413941 652.9061238996328 667.9566058660237 0 0 0
1465 1 1 0 659.450395190069 656.1019152862015 661.9550296475337 0 1 0
160 1 1 0 677.556663476277 655.9244041329227 653.2104702826371 0 0 0
1557 1 1 0 669.266965993936 652.7618811694841 658.9270806491905 0 1 0
3383 1 1 0 678.0789287240992 644.9079346574633 654.5278176350064 0 1 0
163 1 1 0 674.5962366196796 657.1739735363251 658.7000321495021 0 0 0
164 1 1 0 675.2111857330239 649.327502439479 653.2880272704909 0 0 0
165 1 1 0 664.9648248363537 649.4446996231815 668.3941283848818 0 0 0
827 1 1 0 667.148563486423 653.29667630417 641.4818949322035 0 0 1
167 1 1 0 667.2262697127283 663.5494831146473 665.0854436749755 0 0 0
168 1 1 0 673.8340173141036 653.7825281164997 663.6680001281908 0 0 0
169 1 1 0 676.3410205734152 658.963538293824 658.7946575001646 0 0 0
929 1 1 0 658.2667086667482 653.261518082901 669.0812428052799 0 1 0
171 1 1 0 670.6328210302087 657.4074928177611 648.9215800782124 0 0 0
172 1 1 0 671.2050361585497 657.5911588013104 652.5399775129215 0 0 0
173 1 1 0 672.8458536492949 657.825306091887 650.6546133682277 0 0 0
174 1 1 0 672.3562264555002 658.3788016189072 652.9556057665187 0 0 0
175 1 1 0 672.585789378211 658.4589646040386 654.3481133047526 0 0 0
176 1 1 0 663.9729759958946 661.3309552605712 671.5163495496092 0 0 0
177 1 1 0 647.6413367809113 662.7271209940443 675.1240599675632 0 0 0
178 1 1 0 647.1913930006363 661.2773212573371 675.0193513303835 0 0 0
179 1 1 0 646.719302018707 663.1527189302237 676.2164468522312 0 0 0
180 1 1 0 646.5452315487955 662.1133412863746 677.1970014555865 0 0 0
181 1 1 0 659.7513425181719 661.366898392892 668.1503585517734 0 0 0
822 1 1 0 672.3334216121383 652.0391049502086 642.1702548694673 0 0 1
183 1 1 0 648.1291087260448 660.8150746286757 676.0473441462424 0 0 0
3421 1 1 0 678.1997751438836 647.061942940913 653.6667426130713 0 1 0
319 1 1 0 658.3294829136557 654.6414543915938 668.6353169543578 0 0 0
186 1 1 0 667.7406343692372 658.502390235214 663.1264488607421 0 0 0
187 1 1 0 660.8057485398151 664.304809715354 669.4088420571117 0 0 0
188 1 1 0 659.2819382485917 655.5243572931788 669.2159970328204 0 0 0
189 1 1 0 672.020660297578 650.9070014702941 655.3625991307626 0 0 0
190 1 1 0 645.8242839736598 658.7150602850935 676.7313578543309 0 0 0
191 1 1 0 645.547652651609 660.0870773833042 676.354537375215 0 0 0
192 1 1 0 647.0592841925801 658.0785307121542 676.5662806200519 0 0 0
193 1 1 0 645.9619628865094 660.6037218587816 675.0894889849432 0 0 0
1314 1 1 0 658.5184903930011 642.4178849814163 668.0378657716374 0 1 0
195 1 1 0 661.53787883649 663.6738922979366 671.5896199526237 0 0 0
196 1 1 0 658.2820518811327 664.6002120741248 673.3002366767274 0 0 0
197 1 1 0 659.1246906982385 665.4283285159735 672.5266353319336 0 0 0
1556 1 1 0 659.6285190535241 646.8777177033395 673.7455122835008 0 1 0
199 1 1 0 658.7905856547422 661.18560201924 669.1807125219303 0 0 0
200 1 1 0 675.9355640748596 659.3911670162189 657.4873296409305 0 0 0
201 1 1 0 662.2395483618279 656.0746409826835 665.1238719872359 0 0 0
202 1 1 0 674.2928676905809 648.5588045322735 654.0430070176197 0 0 0
203 1 1 0 664.6217347517403 663.2310715226829 668.1498644048595 0 0 0
204 1 1 0 666.3880333622769 662.7070450453904 670.7722935086372 0 0 0
205 1 1 0 660.496161214774 653.3392539697707 670.3878557286469 0 0 0
206 1 1 0 675.9419378712618 659.1280274246452 654.6895117844668 0 0 0
240 1 1 0 676.724581612382 647.4692773041347 653.4563297450436 0 0 0
2973 1 1 0 678.6596141293064 648.5914383972305 655.8288948009366 0 1 0
884 1 1 0 663.5259421688814 640.05213601967 658.1419586927909 0 1 0
664 1 1 0 665.0949205198916 641.1322526283238 642.1253618150309 0 0 1
905 1 1 0 659.9909970835951 641.238798887309 670.5486305816729 0 1 0
828 1 1 0 667.811508486634 654.5536423669417 641.5298047614178 0 0 1
213 1 1 0 669.7995067260778 654.7175199899426 662.4428581263094 0 0 0
214 1 1 0 672.4427372879942 655.2773614422796 660.2099014301579 0 0 0
215 1 1 0 673.6088413028896 655.168474436982 662.925100917221 0 0 0
216 1 1 0 678.2778784932457 658.1898344099252 654.1186047289995 0 0 0
217 1 1 0 674.8469227444465 655.1900787759414 662.0683253196999 0 0 0
218 1 1 0 669.9459163025602 651.9051944673869 656.7799424022897 0 0 0
1365 1 1 0 657.8806486894313 640.1631500250226 669.3812237541722 0 1 0
1192 1 1 0 669.072878906564 641.0360418017482 654.6067704713379 0 1 0
1236 1 1 0 675.8581044231014 646.3231464453359 656.4502383035524 0 1 0
863 1 1 0 663.6936585916756 642.5738097651661 659.1338537243287 0 1 0
223 1 1 0 644.8817234489524 660.9218654580746 678.639267340548 0 0 0
224 1 1 0 645.4624330833909 661.163982009805 677.3565144958394 0 0 0
225 1 1 0 665.1150191451727 657.2524892398901 663.4291519575592 0 0 0
937 1 1 0 677.0388272471977 649.7390372730783 657.1734529611892 0 1 0
227 1 1 0 652.352644773335 663.0709156873241 673.2366018490054 0 0 0
228 1 1 0 652.4886056586669 661.7274416500748 672.7668714324639 0 0 0
229 1 1 0 651.2142542970078 663.2689489753462 674.0268030280251 0 0 0
230 1 1 0 651.600355492894 660.8046472109894 673.5071099908978 0 0 0
231 1 1 0 649.9303157997517 662.5066148756264 673.9078123477957 0 0 0
232 1 1 0 649.0612099073221 662.9469814725828 675.0278564024514 0 0 0
233 1 1 0 650.2172509953484 661.1245408022216 673.6734381175448 0 0 0
234 1 1 0 649.4010105229892 660.1242609606254 674.1809990447955 0 0 0
235 1 1 0 648.3199099828948 657.8769268744097 677.056941600981 0 0 0
236 1 1 0 649.3504432603244 658.7239603132336 677.5133633526323 0 0 0
237 1 1 0 649.0695882705048 659.4042144738036 678.7205561762527 0 0 0
238 1 1 0 647.8333233041614 659.2296195823213 679.3635756592713 0 0 0
239 1 1 0 657.0028931507595 664.5037445363064 672.6827272001545 0 0 0
761 1 1 0 667.6266804053457 649.3137018099402 640.3797871913549 0 0 1
241 1 1 0 677.6827268162673 656.8440692096815 654.2291882544492 0 0 0
242 1 1 0 665.6131708637928 653.728843442987 666.8049583785912 0 0 0
243 1 1 0 663.4148523926564 656.3366952511494 667.5633241847366 0 0 0
244 1 1 0 660.6254011974838 664.4218130488827 670.7898148850395 0 0 0
403 1 1 0 665.2943924925418 648.9389907374504 667.0734985742102 0 0 0
246 1 1 0 669.1501585652095 658.7803132236988 663.1070778786288 0 0 0
247 1 1 0 669.501249808737 657.13779404138 661.3245144232802 0 0 0
681 1 1 0 670.1277109878286 655.1469189555908 640.9704590935049 0 0 1
505 1 1 0 662.9297171118382 645.7282857052453 640.4105707580417 0 0 1
250 1 1 0 674.6806635315681 657.0045658927468 652.2526624854023 0 0 0
251 1 1 0 661.304656972245 659.8652091638095 669.1981241396724 0 0 0
1338 1 1 0 663.3724112761774 640.4950278667731 651.2624972623977 0 1 0
253 1 1 0 665.3516795116718 660.8956447450671 667.549099995992 0 0 0
254 1 1 0 660.7741253603651 660.4126825637276 668.0218052828222 0 0 0
255 1 1 0 665.0426070551852 650.7984241762197 668.701862030805 0 0 0
256 1 1 0 665.505479142323 651.6083751995845 667.6851070565576 0 0 0
257 1 1 0 664.4754445852433 663.8184617547325 669.4142912547144 0 0 0
258 1 1 0 661.2389420818691 654.0514572018014 667.6905457948939 0 0 0
705 1 1 0 669.3546967694269 652.3871857996712 644.1483803206984 0 0 1
260 1 1 0 659.6983388879717 657.7953632947821 664.833589563319 0 0 0
1486 1 1 0 660.1945630700195 639.9300261813587 670.0073462315089 0 1 0
262 1 1 0 652.4128888144276 662.3834382144798 675.9502862774544 0 0 0
263 1 1 0 655.5219665740914 661.3457585033768 675.5878050383765 0 0 0
264 1 1 0 656.2526493764109 662.2154549050716 674.7420301742127 0 0 0
265 1 1 0 654.9208696584975 660.2208021626368 674.9748752958644 0 0 0
266 1 1 0 653.842018611279 661.1460162380922 672.919027230225 0 0 0
267 1 1 0 665.2093922338752 660.7501531942496 666.1548127671595 0 0 0
268 1 1 0 671.4831679028541 655.2368875836969 666.2969718478453 0 0 0
269 1 1 0 673.6893560487836 655.871502187878 667.2585190663282 0 0 0
270 1 1 0 674.9978751983954 655.5751525201745 665.1731885619098 0 0 0
271 1 1 0 672.2801426182185 654.5913884423543 665.2972302093875 0 0 0
1233 1 1 0 658.1116353496798 652.6642576977165 666.7326288952778 0 1 0
273 1 1 0 670.1395491770692 655.7240369448798 665.9878394908874 0 0 0
274 1 1 0 669.5825990676441 656.6055552018438 667.0197148192384 0 0 0
275 1 1 0 670.4838868875253 657.476686795295 667.7195133818399 0 0 0
276 1 1 0 669.3675838576169 659.2664042927177 669.1213976717522 0 0 0
277 1 1 0 670.2551565792246 658.8442071896862 668.093967965633 0 0 0
278 1 1 0 669.2136389962789 660.5799160403824 669.6784662566232 0 0 0
279 1 1 0 668.2635103117342 660.6293384840899 667.4034643749295 0 0 0
280 1 1 0 663.1067039214834 660.7290988648724 664.7391594831204 0 0 0
281 1 1 0 667.3444751407533 659.4842369818085 667.943537388681 0 0 0
282 1 1 0 652.0775972332912 660.9750454437092 675.8898449943275 0 0 0
283 1 1 0 666.9943165706583 658.8371912988405 664.2463872027936 0 0 0
284 1 1 0 672.260543447325 655.9616125365476 667.2722951608233 0 0 0
285 1 1 0 671.8275409411178 657.2872644397264 667.4088703444378 0 0 0
286 1 1 0 672.4337621452169 658.2821521911291 666.5970547444333 0 0 0
287 1 1 0 670.4927017464066 659.7402398380766 667.0096575452603 0 0 0
288 1 1 0 671.4840131103693 659.2842516494737 666.0739387405519 0 0 0
289 1 1 0 669.3192984795538 660.3425523080716 666.5118216869458 0 0 0
290 1 1 0 668.877082553306 659.836855801516 665.2892341355008 0 0 0
1480 1 1 0 659.5407483086395 640.0193055465855 673.9044089033191 0 1 0
292 1 1 0 667.2691131268574 657.2309597114527 666.4670015774441 0 0 0
293 1 1 0 649.1152293060611 659.9943608369209 675.5370805652869 0 0 0
294 1 1 0 674.3095873036652 656.6427394342445 666.1823577612147 0 0 0
295 1 1 0 673.4846599452083 657.8086710865091 665.7204452050095 0 0 0
296 1 1 0 673.0380310723222 657.7175248255766 664.3856430161009 0 0 0
297 1 1 0 671.0857386178043 659.1218924281133 664.7126348431357 0 0 0
298 1 1 0 671.940027797538 658.417899282367 663.8090519679226 0 0 0
299 1 1 0 669.7600839985907 659.3858406013752 664.2801792780382 0 0 0
300 1 1 0 674.2046858854718 653.9706359296913 653.0139754098477 0 0 0
301 1 1 0 673.8522838345938 656.247785854577 653.0729075452273 0 0 0
302 1 1 0 667.5962377657061 659.33965894765 665.3654525556009 0 0 0
303 1 1 0 667.0831216687335 658.7048252836712 666.6104227555691 0 0 0
304 1 1 0 666.5544042115067 656.9104797325604 665.3442111613919 0 0 0
305 1 1 0 673.4876143818753 655.2601737324056 665.0180777447728 0 0 0
306 1 1 0 673.2297535760935 656.3873444983241 663.9345014375724 0 0 0
1057 1 1 0 666.2792297803004 644.6636557986095 657.3731073018212 0 1 0
308 1 1 0 676.1454764212939 659.0664743373826 653.318651891044 0 0 0
1360 1 1 0 657.6697463873422 646.7930007969034 668.4357747463175 0 1 0
310 1 1 0 661.6232353321775 660.527314439473 666.9184376811202 0 0 0
1512 1 1 0 673.9720844261961 651.8267073041277 657.9798632855028 0 1 0
1307 1 1 0 669.4432109508269 647.5713529151329 661.6086002993692 0 1 0
313 1 1 0 671.0962887032705 656.8885618624201 651.3134965121956 0 0 0
314 1 1 0 667.0192766226976 656.0520172459676 664.2906040680939 0 0 0
315 1 1 0 662.837296866253 649.2751109904297 672.4373153880433 0 0 0
2238 1 1 0 677.4671864016551 649.4280293384359 652.2980283631292 0 0 0
1444 1 1 0 662.0300450002156 642.1516526185405 671.3371713303868 0 1 0
878 1 1 0 658.0349609738905 641.5712668744518 669.0635345695164 0 1 0
489 1 1 0 671.3602758768137 657.3097717373065 643.6762242227211 0 0 1
320 1 1 0 675.0175259335977 658.5602308030511 652.2680378775597 0 0 0
321 1 1 0 663.4273190020244 659.6637579230286 665.584596210379 0 0 0
322 1 1 0 663.9957759285465 662.7120907871438 671.4168472166267 0 0 0
323 1 1 0 652.4100610433237 660.3400675146097 674.6403178038721 0 0 0
324 1 1 0 668.2870089707321 655.5167437939463 664.0681680580242 0 0 0
325 1 1 0 669.5883286243462 655.5389103907138 664.6959373246276 0 0 0
326 1 1 0 672.5096500334605 653.3419864103503 661.7588814156757 0 0 0
327 1 1 0 660.3927809386382 663.4644640627236 673.8173231327992 0 0 0
328 1 1 0 661.0189654723525 662.8559187341751 672.6769320649253 0 0 0
1353 1 1 0 657.9326936888758 646.6057330460566 667.0356172243796 0 1 0
330 1 1 0 667.3100257185497 657.3579850636091 662.368123774561 0 0 0
331 1 1 0 672.4616256048297 653.4795793675813 663.2070791571196 0 0 0
332 1 1 0 665.0984227043979 663.2411665629926 670.6128481852834 0 0 0
333 1 1 0 674.6231461472329 654.2117606025818 654.3802231714167 0 0 0
334 1 1 0 666.5134761263108 662.8203815360243 665.9577251612653 0 0 0
335 1 1 0 665.2262592857005 662.1290146552506 665.6453464911907 0 0 0
336 1 1 0 658.9435636255178 663.4284174342005 673.751441328795 0 0 0
337 1 1 0 660.5673666207738 661.538936077862 672.36515274784 0 0 0
338 1 1 0 675.9923748487282 654.5627932957336 654.5669428524021 0 0 0
932 1 1 0 663.3457245509337 648.6017130918979 661.567561583134 0 1 0
340 1 1 0 675.1873547615461 658.407362145817 656.7767539025822 0 0 0
341 1 1 0 665.639922086447 658.1819081551567 664.6733643309888 0 0 0
342 1 1 0 658.4180427868062 662.1302392148955 673.4645340961539 0 0 0
343 1 1 0 657.0680904797595 661.7580711773142 673.6653690009296 0 0 0
344 1 1 0 659.1722196604939 661.3247304764253 672.5646447643969 0 0 0
345 1 1 0 658.4774786446217 660.6726692214393 671.5000725687223 0 0 0
1485 1 1 0 661.8391799488302 652.0235928202039 661.3450525435278 0 1 0
347 1 1 0 659.2091700791357 660.4377074266249 670.3217417216407 0 0 0
348 1 1 0 651.3714444488962 663.2589965125213 675.4628029041651 0 0 0
349 1 1 0 651.0739412848809 660.4352364170326 676.80284322163 0 0 0
350 1 1 0 676.7290390796737 660.2013059500899 656.6583987630122 0 0 0
351 1 1 0 669.9989474548103 656.1260104869497 648.9321007638802 0 0 0
166 1 1 0 661.9533322205056 647.7253088756345 670.1351577962448 0 0 0
353 1 1 0 656.3509405109796 661.1771505861665 672.5365642959068 0 0 0
354 1 1 0 655.0008562201429 661.6067032870078 672.2925231473824 0 0 0
355 1 1 0 657.1352139375042 661.0458420835289 671.3681648928377 0 0 0
356 1 1 0 656.8809863981305 662.0203488764718 670.3637508618748 0 0 0
357 1 1 0 666.0293744620275 659.9223685142592 668.5411763045464 0 0 0
358 1 1 0 657.905144782594 662.2682101152839 669.4618929474809 0 0 0
670 1 1 0 672.1223011300855 653.068653975664 644.3802486857368 0 0 1
360 1 1 0 659.3906248676258 656.9047836608507 667.0867499362918 0 0 0
361 1 1 0 664.2457165766568 651.5504843848831 669.8836041004226 0 0 0
362 1 1 0 665.6122963078461 662.2654083130511 667.8855531310531 0 0 0
363 1 1 0 670.7009484077637 655.1257206918397 663.5787701434986 0 0 0
364 1 1 0 659.7210691854199 663.6715021605701 668.7302358865398 0 0 0
365 1 1 0 673.0171753697228 650.4062716717004 654.512627781284 0 0 0
366 1 1 0 662.7899885804984 661.9662459911332 665.3777921974867 0 0 0
472 1 1 0 671.9788852404467 654.5925842781951 644.1249002980255 0 0 1
368 1 1 0 663.4279416871059 659.7750357920632 670.3872011908659 0 0 0
369 1 1 0 674.255501255464 651.1739467999703 654.484587650377 0 0 0
370 1 1 0 663.8748267095339 648.5592502148877 669.0671664171592 0 0 0
371 1 1 0 671.3610174111585 657.8003763514575 650.0972801277379 0 0 0
372 1 1 0 650.1013088553714 663.1734898267844 676.1182798909906 0 0 0
373 1 1 0 664.8504538862963 660.4481482569806 670.5780815965495 0 0 0
374 1 1 0 671.395326090847 655.5558556961413 650.8605268810833 0 0 0
375 1 1 0 661.248120323343 651.017156026887 672.0156963956242 0 0 0
1191 1 1 0 668.0340366924615 640.4123115752957 655.3303570299689 0 1 0
377 1 1 0 673.3675759154399 658.4711110522145 651.8699530606475 0 0 0
378 1 1 0 673.0532778354668 649.0144428340666 654.3830003537539 0 0 0
379 1 1 0 666.937307019979 661.530892287197 670.1920526337547 0 0 0
380 1 1 0 671.4490810270944 658.0867524745283 662.4992277025542 0 0 0
381 1 1 0 662.6775858490817 660.495702315212 671.5569789918868 0 0 0
382 1 1 0 663.592012415532 653.439904384471 667.4296063107108 0 0 0
383 1 1 0 671.6279930577601 654.0776039718976 664.1627095280174 0 0 0
480 1 1 0 665.9408173998723 646.5716604401488 641.9184994978281 0 0 1
385 1 1 0 660.5254425262267 648.9430614389453 672.6893531436962 0 0 0
386 1 1 0 668.33686283404 656.5441108524185 661.8629066942732 0 0 0
420 1 1 0 676.9968064764181 651.574558020197 655.0359467384478 0 0 0
388 1 1 0 661.2785217958889 656.4740618105247 668.3977538140194 0 0 0
389 1 1 0 661.6880508311388 654.1659245839783 666.4160191885663 0 0 0
390 1 1 0 665.4795999898505 653.6405280371556 669.1597823383987 0 0 0
907 1 1 0 660.9212934079828 654.1469884213894 664.2898673987337 0 1 0
392 1 1 0 668.1625098473899 661.5875150282907 669.4336791973795 0 0 0
393 1 1 0 673.7970787246874 655.0695351398269 659.9126598628075 0 0 0
394 1 1 0 662.1568270823774 656.8825031266163 667.413987814648 0 0 0
395 1 1 0 663.988223563754 647.3366207391955 671.3684990821591 0 0 0
396 1 1 0 670.8787131997503 655.1455297994343 649.6211568450988 0 0 0
397 1 1 0 650.5695792300445 661.341659435853 677.7894635949385 0 0 0
398 1 1 0 664.7613045565097 659.0461557952564 668.0971181912083 0 0 0
3411 1 1 0 676.7625138559185 644.6750577361465 654.7641551686145 0 1 0
400 1 1 0 660.7833828193261 652.2455607394878 669.2251189369556 0 0 0
401 1 1 0 676.7680493029202 654.727173399593 653.3712185894749 0 0 0
1041 1 1 0 675.7312494395712 646.7365491336207 654.0122638271303 0 1 0
150 1 1 0 674.8303808979549 656.5974415670835 650.9130725997853 0 0 0
404 1 1 0 675.5354881466998 652.3835241637802 663.162344371381 0 0 0
405 1 1 0 672.8777093414993 655.2066754985568 651.0901124867903 0 0 0
488 1 1 0 663.6777409284239 643.3948655377329 641.2713855086341 0 0 1
407 1 1 0 664.8722937154441 659.2023326230951 665.5200816223237 0 0 0
408 1 1 0 662.6752835528046 659.4894814190997 669.2429604118227 0 0 0
1081 1 1 0 676.1947959576576 650.9180073906679 657.2526254279483 0 1 0
869 1 1 0 664.0441588096508 646.2962847198828 661.2056178952688 0 1 0
2474 1 1 0 642.2674064283642 657.5664653869868 679.5329416699877 1 0 0
986 1 1 0 658.8173897849961 656.865912285229 664.2861928351563 0 1 0
413 1 1 0 673.4237064951927 653.884320155039 650.4999759783822 0 0 0
414 1 1 0 660.0822170183332 662.6713180185194 667.8225416500485 0 0 0
415 1 1 0 661.5972783496504 649.8846586494484 672.7765442044952 0 0 0
416 1 1 0 663.124874497517 664.0935955478146 669.7795592533142 0 0 0
417 1 1 0 669.3485205431115 655.7402830047089 647.6735051519378 0 0 0
418 1 1 0 661.404488688449 652.7372823915704 668.1275176007948 0 0 0
419 1 1 0 660.9687750582142 650.917402677748 669.6490437393384 0 0 0
437 1 1 0 678.2219588699272 650.9713423048255 655.4043754034054 0 0 0
421 1 1 0 674.6652603003396 651.8102362760262 655.6849765809234 0 0 0
422 1 1 0 660.0916925318306 658.9703572339833 664.2491613436362 0 0 0
423 1 1 0 668.9142035142589 652.31689089287 657.6128121010643 0 0 0
424 1 1 0 670.9551492308649 650.0385225201595 655.6939369118804 0 0 0
425 1 1 0 663.0852116420529 653.7961456778132 665.5541359559879 0 0 0
426 1 1 0 669.8031811771885 650.6404349588051 656.1810409614192 0 0 0
427 1 1 0 660.192592912342 650.5547312223476 670.9360847065235 0 0 0