LAMMPS data file via write_data, version 2 Aug 2023, timestep = 50000, units = metal

31820 atoms
1 atom types

622.6714751089823 750.0165238909731 xlo xhi
622.9544685266388 750.4425304733858 ylo yhi
622.9797238375724 750.4172751624523 zlo zhi

Masses

1 12.0107

Atoms # full

1 1 1 0 676.7357325796877 661.0042715616801 633.9808785990755 0 0 0
124 1 1 0 623.2128320025084 677.2924969544488 637.1545935788287 0 0 0
3 1 1 0 623.7198042266618 661.0375574266013 637.4167002820101 0 0 0
4 1 1 0 635.7076630345692 647.2877705855901 630.0950528039415 0 0 0
5 1 1 0 669.582428625898 624.8348035154497 629.4963537580305 0 0 0
6 1 1 0 630.8236398934379 627.2051045588078 623.9777771776027 0 0 0
3807 1 1 0 627.6865068525981 645.2826947772465 623.4910924586029 0 0 0
6285 1 1 0 652.8248461335834 651.2526657779467 623.6737126859426 0 0 1
9 1 1 0 628.2194274217312 649.2397191867803 677.0186738171699 0 0 0
10 1 1 0 626.5069680850629 650.807056013825 676.4240505954945 0 0 0
11 1 1 0 624.9114096858634 658.8015167554015 632.1010951601165 0 0 0
12364 1 1 0 654.8877431330628 623.4194735869252 679.2022263933518 0 1 0
13 1 1 0 626.9606308957302 658.0651909333595 629.9908951836276 0 0 0
14 1 1 0 685.4973837663357 630.6548382544754 625.6193491212647 0 0 0
2189 1 1 0 685.7075858715737 659.6460905243205 652.0901912523914 0 0 0
16 1 1 0 629.1400698942384 629.0713468977292 633.7255846737958 0 0 0
17 1 1 0 627.8898249089182 623.9275517796068 633.5754879212119 0 0 0
7739 1 1 0 658.0766162113897 651.494173303001 623.7611950439162 0 0 1
19 1 1 0 626.7430974806147 626.207742899297 633.1690649713541 0 0 0
12382 1 1 0 667.1786466311144 686.1637943966522 631.5112837244302 0 0 0
21 1 1 0 632.0788721468206 648.31699407606 630.9937321233195 0 0 0
22 1 1 0 626.8827850194625 651.1160526517629 670.0406571019131 0 0 0
23 1 1 0 627.0365926270017 636.2387110416504 629.3220388804028 0 0 0
24 1 1 0 625.1360428107602 629.3923048709572 627.1981499612563 0 0 0
3399 1 1 0 623.5051039369328 652.5737985506897 626.4793709588357 0 0 0
26 1 1 0 668.915704184228 630.8814140578595 623.8720815770338 0 0 0
16634 1 1 0 622.9194658601137 652.9516094140992 686.010856328413 1 0 0
28 1 1 0 625.6783300460891 658.4629809732141 657.5780217583731 0 0 0
29 1 1 0 624.4408399776022 651.4024827334081 626.862844327697 0 0 0
30 1 1 0 634.2693198464721 647.4076879103417 630.1907287245238 0 0 0
9251 1 1 0 680.4689001604518 623.1841977438027 625.4245965101139 0 1 0
32 1 1 0 631.4823299754999 636.3375436380575 630.2974624287637 0 0 0
33 1 1 0 667.161587039082 684.5088945530345 633.330045337172 0 0 0
34 1 1 0 665.0695452481297 660.5235023864454 628.2210689476076 0 0 0
35 1 1 0 635.3558644999792 644.496724235042 627.5964207188116 0 0 0
36 1 1 0 677.9086056082353 661.1649926448582 634.9058129727368 0 0 0
37 1 1 0 662.5364021048601 625.7105586550272 662.662224470837 0 0 0
2998 1 1 0 641.5415428282723 686.6744357550635 683.8131920617848 0 0 0
3955 1 1 0 654.1051603032837 624.3807080634125 686.3010162330887 0 0 0
40 1 1 0 624.8332961649328 653.3362382475837 670.4846333112013 0 0 0
3748 1 1 0 661.0896237808013 665.8865408028403 685.9828328075697 0 0 0
42 1 1 0 628.9133377605265 628.6867478493157 630.08674615836 0 0 0
43 1 1 0 662.4353253920128 625.834529054926 656.8490838484993 0 0 0
44 1 1 0 626.3263322478917 634.4976178795202 625.3169938530369 0 0 0
45 1 1 0 628.9679224421374 649.4296584013213 675.8608962557763 0 0 0
3861 1 1 0 647.9992121643813 656.0898106179942 623.5021839598585 0 0 1
47 1 1 0 661.0649416017229 636.6263376940075 655.5302867837835 0 0 0
48 1 1 0 624.6322472037485 654.9455088799139 662.6053745445028 0 0 0
49 1 1 0 660.9279238842494 634.936840856872 657.0992490974237 0 0 0
50 1 1 0 661.8429355530659 684.3710947908318 633.1108637966004 0 0 0
51 1 1 0 624.111161678438 681.2511280084019 636.3212703554312 0 0 0
52 1 1 0 660.3815874030926 672.5052539990985 685.4745309707246 0 0 0
53 1 1 0 634.2598316857066 643.2799844275985 627.5291400902804 0 0 0
54 1 1 0 644.29558976206 683.5103808095267 681.3727555920177 0 0 0
55 1 1 0 629.3692458403846 635.1961125003924 629.6723609716856 0 0 0
56 1 1 0 626.3227865311065 654.7098909826177 671.7387258372954 0 0 0
57 1 1 0 669.5876952029769 662.3169163723875 635.3360411912738 0 0 0
58 1 1 0 629.449739626909 637.6837800315927 629.0833505271056 0 0 0
59 1 1 0 630.1768957770815 629.0266194703458 630.9336283751311 0 0 0
19330 1 1 0 623.4402329586792 649.3345598284583 682.1954768871605 1 0 0
2747 1 1 0 657.7232709281199 664.5917651289203 686.1505699129785 0 0 0
1894 1 1 0 664.0739315521275 664.22898756922 686.6528129393117 0 0 0
63 1 1 0 670.4342781557671 663.6936318052623 637.7871353214681 0 0 0
64 1 1 0 632.0509665723589 625.6811171791514 629.757293053102 0 0 0
65 1 1 0 668.3650934785143 663.9936451412019 636.3474703190924 0 0 0
66 1 1 0 631.9053827373843 626.9637445917566 630.3048218746217 0 0 0
67 1 1 0 631.5082562087863 627.0099031484049 631.6663080540741 0 0 0
68 1 1 0 630.6509761251349 628.0134441058941 632.0826694954753 0 0 0
69 1 1 0 632.2735896927429 646.0521308021367 630.2035774620507 0 0 0
70 1 1 0 631.2248881024152 633.4673527994736 626.1877897790253 0 0 0
9646 1 1 0 648.8623430000273 685.6528093137158 634.3823575451263 0 0 0
72 1 1 0 665.8873748187054 625.6253226242571 658.4232286509887 0 0 0
9677 1 1 0 653.2747801484725 686.3661412807497 633.5682997003065 0 0 0
8384 1 1 0 623.7348863500822 623.106413456516 641.3471741472425 0 1 0
75 1 1 0 631.7956384158138 644.7791208013984 630.1654683529597 0 0 0
4694 1 1 0 652.5845610402772 656.2729079181888 623.6019333743177 0 0 1
77 1 1 0 629.2577753519249 630.4649566744995 633.3785346474186 0 0 0
78 1 1 0 651.4784188324477 670.4104450710485 682.5259116952742 0 0 0
79 1 1 0 624.8790118217056 657.463231990131 662.3489799862505 0 0 0
80 1 1 0 649.9297544639188 674.192096572921 682.088204524008 0 0 0
81 1 1 0 662.7647782937753 666.575137439495 634.9067552176372 0 0 0
82 1 1 0 626.328294418988 653.3155541448949 633.4931138622293 0 0 0
83 1 1 0 631.5747855696031 625.8540667079319 632.5482223272239 0 0 0
84 1 1 0 630.9257768065518 625.7661226204019 633.8191337362815 0 0 0
85 1 1 0 625.9747167689377 631.6681083150787 627.1677079793434 0 0 0
3018 1 1 0 663.7965200570867 623.1894923227321 646.9683660676512 0 0 0
87 1 1 0 625.6279284304367 653.4091044056962 665.8073741979179 0 0 0
88 1 1 0 652.2143152077799 628.1908786600077 675.613057885245 0 0 0
89 1 1 0 653.9471481446536 624.2354694861879 681.4637329139938 0 0 0
90 1 1 0 627.6203778911045 628.7850963104676 630.5589264000517 0 0 0
17400 1 1 0 686.1300930194703 667.2553417344028 637.223337658976 0 0 0
2713 1 1 0 686.1870315168534 662.0092108450656 649.2035225555901 0 0 0
8193 1 1 0 645.4083817646659 686.152826773336 627.9220534584682 0 0 0
94 1 1 0 647.5630580027708 684.9133906302194 682.3118593964733 0 0 0
95 1 1 0 626.3532705298202 651.9626492869618 669.1573246203269 0 0 0
96 1 1 0 650.1658317344591 678.8070939123326 682.165315382473 0 0 0
97 1 1 0 624.3148911125644 671.3316014832702 636.1354835848008 0 0 0
98 1 1 0 663.4733609992411 624.3199559802057 660.9624884258952 0 0 0
99 1 1 0 658.0099704276774 681.1003985752133 635.3253998110921 0 0 0
100 1 1 0 655.6871922784023 670.260238500267 684.7368355087302 0 0 0
101 1 1 0 661.7833475456804 628.1557827322181 655.6106830048499 0 0 0
102 1 1 0 650.7832618140549 627.3557114323604 673.8898046479128 0 0 0
103 1 1 0 660.3100519459189 658.6508330084177 625.0764607399442 0 0 0
104 1 1 0 628.2078462777284 624.2245281827793 626.8973957209334 0 0 0
105 1 1 0 682.730612285586 668.6141305972088 648.486486608446 0 0 0
106 1 1 0 642.6330213278487 684.7740561277553 676.5703015031986 0 0 0
107 1 1 0 683.5061447483237 626.5678573514139 624.0788008959572 0 0 0
108 1 1 0 651.0090662516438 673.1776090589055 681.8219695957682 0 0 0
109 1 1 0 649.135943535506 654.2451696096118 625.1119285389746 0 0 0
110 1 1 0 668.1626362130646 665.7139685413205 632.6095865932926 0 0 0
16934 1 1 0 624.0046674809 648.4227594329815 679.5190067834983 1 0 0
444 1 1 0 686.0886922424211 665.6835532212716 640.6652402239207 0 0 0
113 1 1 0 681.3443438787218 664.0720994922597 636.8443754370155 0 0 0
114 1 1 0 639.4508622214106 653.1209703614782 624.4631315941275 0 0 0
115 1 1 0 662.8864841404976 634.8837600379732 655.6876482413021 0 0 0
116 1 1 0 623.637921672711 653.7165561590954 628.5379757234393 0 0 0
19337 1 1 0 686.3395143833615 625.058473913313 624.4481842970977 0 0 0
118 1 1 0 623.959972178644 671.8365421735267 640.5841305687741 0 0 0
119 1 1 0 648.6591912290569 676.3741049722169 685.154545653888 0 0 0
120 1 1 0 651.4350354754552 674.063653933183 679.5564831682467 0 0 0
1226 1 1 0 685.5092625635742 660.3083882551406 656.48781457485 0 0 0
122 1 1 0 663.779509114367 682.652282791469 636.3891185582147 0 0 0
123 1 1 0 678.9913053431345 663.2891527712685 636.9676296472338 0 0 0
12366 1 1 0 650.8539775739695 686.2971810137464 628.8763825073506 0 0 0
125 1 1 0 627.126046052132 650.1417390969818 672.2716645708574 0 0 0
126 1 1 0 650.79914829432 676.5736777882292 683.6978475019849 0 0 0
9445 1 1 0 661.1313592549816 623.0399434807543 652.4649903449163 0 1 0
128 1 1 0 625.9868740004442 655.0312207587027 669.3048243430487 0 0 0
1545 1 1 0 661.4169105473371 623.4429105459285 647.752746265906 0 0 0
130 1 1 0 625.5581661968281 678.6842360251669 633.5079400929826 0 0 0
131 1 1 0 651.9739757480384 673.855922199131 680.8770265963236 0 0 0
132 1 1 0 671.9985678324325 628.1182125338564 623.6942557490086 0 0 0
133 1 1 0 667.0843163708456 628.6257471665151 635.9276537176545 0 0 0
134 1 1 0 659.592749957937 666.8363466562195 680.4761103693531 0 0 0
135 1 1 0 659.9543749714774 668.2732051771733 682.3786129954938 0 0 0
136 1 1 0 672.963004315161 625.7393398406191 632.0842154007863 0 0 0
137 1 1 0 626.8420150520633 651.1150527889445 677.9110839191554 0 0 0
138 1 1 0 626.2876713316942 626.0504480208942 634.5808285881006 0 0 0
139 1 1 0 630.1251994871822 628.0498327554092 633.3927275258065 0 0 0
17409 1 1 0 623.7302662444666 658.695747263179 660.5013835531895 1 0 0
141 1 1 0 661.0202251220754 626.2874214257026 657.0302816174905 0 0 0
142 1 1 0 649.6208398272933 680.1920338756003 682.5725577657136 0 0 0
143 1 1 0 646.639435760836 684.028669752061 681.6511301511117 0 0 0
144 1 1 0 653.3995571259104 626.7679502414292 678.0908528335968 0 0 0
145 1 1 0 680.0174290683136 629.4498413652811 629.7984489744521 0 0 0
146 1 1 0 665.4452425997146 624.9733668953036 659.6904474237273 0 0 0
147 1 1 0 650.4486540944255 675.0159341460783 679.5139762251039 0 0 0
148 1 1 0 670.7775949459647 661.9141934947527 636.0478401852761 0 0 0
149 1 1 0 650.6841326977676 676.3212209546035 680.0493100690513 0 0 0
150 1 1 0 650.9306351630881 654.7103633661239 626.6310968761961 0 0 0
151 1 1 0 685.193996287852 664.388572815576 655.4926559872803 0 0 0
152 1 1 0 626.7666527847178 641.6331046891519 627.543128755864 0 0 0
2 1 1 0 669.8366340733475 623.8277927859323 640.9999141010627 0 0 0
154 1 1 0 663.8548648070471 633.9511872079717 656.2977464975027 0 0 0
1077 1 1 0 624.2894930490091 652.9670507763931 674.169294039841 0 0 0
156 1 1 0 624.8347393557416 625.2741651106782 631.817399702223 0 0 0
157 1 1 0 625.0028144669984 657.6541295741491 636.734900161588 0 0 0
158 1 1 0 631.222781715771 649.3934209718434 631.247343800093 0 0 0
159 1 1 0 667.780939550231 685.657206208618 632.6896014036473 0 0 0
160 1 1 0 626.3866453256576 653.8527226605981 667.0013032373809 0 0 0
161 1 1 0 648.0815445938247 654.4988547321385 629.57395775542 0 0 0
162 1 1 0 648.5672442877594 655.5400851897949 630.4797130063458 0 0 0
163 1 1 0 649.2620471601954 656.9849884848314 630.2542304492308 0 0 0
164 1 1 0 650.6035527373886 654.7273785581917 629.4010126435957 0 0 0
165 1 1 0 650.0545137120567 655.2149686274262 630.6809950345856 0 0 0
166 1 1 0 651.2484639771541 655.6134034867612 631.4723307956299 0 0 0
167 1 1 0 650.5899849102954 657.1135428066264 630.931998925883 0 0 0
168 1 1 0 651.5154936384773 657.8216188010709 630.0455343304606 0 0 0
169 1 1 0 650.9091500154826 658.6170864746047 628.8528796559658 0 0 0
170 1 1 0 649.8980375524615 657.4450721635816 628.9364154137505 0 0 0
171 1 1 0 649.2320296646518 654.2662593369987 628.5330804393003 0 0 0
172 1 1 0 647.0849346223641 653.5098391395376 629.3604637869685 0 0 0
173 1 1 0 647.4134229768949 652.2021185630272 628.771182112708 0 0 0
174 1 1 0 648.4576805343562 652.063882401084 627.7985105549802 0 0 0
175 1 1 0 650.0701153534096 652.3032287501637 626.33178331459 0 0 0
176 1 1 0 649.5854116621463 652.7537882869135 628.323384994394 0 0 0
177 1 1 0 650.8154372362011 652.4472483216725 628.8417708672251 0 0 0
178 1 1 0 651.7750418198398 651.9495252014167 628.0008823163936 0 0 0
179 1 1 0 651.2599393349129 653.4147616829716 629.6905107927635 0 0 0
180 1 1 0 652.4935518943089 653.5767582911859 630.3064687323415 0 0 0
181 1 1 0 629.0647451872757 650.7115003389802 670.9893012611616 0 0 0
182 1 1 0 652.4987175749823 654.9339449706015 631.0677698042908 0 0 0
183 1 1 0 653.3485991690322 655.8721967237248 630.3554432842549 0 0 0
184 1 1 0 627.3089464756566 654.549804363669 669.1294987272273 0 0 0
185 1 1 0 652.4554128051865 656.8246649141986 629.6833785052295 0 0 0
186 1 1 0 651.7211940870164 655.8168686181546 628.8091084282056 0 0 0
187 1 1 0 629.4044047181543 652.1894667724545 673.7276098622019 0 0 0
188 1 1 0 650.4053286790297 656.3181117796937 628.1908469997301 0 0 0
189 1 1 0 649.9914285093654 655.5355691651487 627.1962724881761 0 0 0
190 1 1 0 653.9780852875322 671.8174887106245 683.924287902715 0 0 0
1493 1 1 0 665.3319854946099 664.4339224700974 686.1611377084047 0 0 0
192 1 1 0 650.3975381001211 653.6943562447588 625.7050813691723 0 0 0
193 1 1 0 626.706574797998 651.3791473160628 671.5216898431761 0 0 0
1469 1 1 0 652.4329496460375 670.371519691552 686.5872297783326 0 0 0
2178 1 1 0 668.6389154944684 668.8612720271879 686.2945682583488 0 0 0
196 1 1 0 626.1829350331425 648.9218655212065 675.7572958210924 0 0 0
197 1 1 0 683.4531236272469 667.2176839403384 650.1302293406362 0 0 0
2983 1 1 0 666.1009552152274 627.9358020570935 623.2415432355695 0 0 0
8676 1 1 0 667.4844594706633 623.1455938439121 632.2766147664933 0 1 0
200 1 1 0 623.8685299368757 658.8683860554474 655.3654890520563 0 0 0
201 1 1 0 631.549491929306 628.9715746286608 627.1337388862371 0 0 0
516 1 1 0 648.1038156011222 677.0572229420096 686.2970488733038 0 0 0
203 1 1 0 651.3061077372158 651.67199241764 626.673075011738 0 0 0
204 1 1 0 625.2292575159614 629.218766672621 625.7931892099476 0 0 0
205 1 1 0 624.1099953521872 625.5605405113948 625.6244397473976 0 0 0
206 1 1 0 685.1557848133552 667.0108727372957 655.1430774150818 0 0 0
207 1 1 0 626.4497793590301 652.0032091518915 634.4455395192828 0 0 0
208 1 1 0 652.5601106614109 630.1280401022112 671.3835951626832 0 0 0
209 1 1 0 684.3645561462673 670.0163388691755 651.2497969770361 0 0 0
210 1 1 0 652.3955392195834 660.4677769456815 627.458279313571 0 0 0
211 1 1 0 628.3545568138582 649.0265218139457 674.5819125884939 0 0 0
212 1 1 0 626.4160058586226 652.7052141909588 677.5307844772916 0 0 0
213 1 1 0 626.9102334389662 649.1194433333875 674.5475956758974 0 0 0
214 1 1 0 624.9517173267946 648.2518406511894 684.1592964614639 0 0 0
215 1 1 0 626.8768043651095 623.9086157756806 638.5092027244622 0 0 0
1030 1 1 0 667.5711941084369 623.5438173485743 657.9802636864949 0 0 0
1076 1 1 0 662.474402531222 623.8921203087333 666.7965144934772 0 0 0
218 1 1 0 652.5385727253599 631.2245547863916 670.4612696006121 0 0 0
2726 1 1 0 665.4609723197101 623.7077136608317 651.1179491825038 0 0 0
220 1 1 0 628.8440563519345 625.3287804098618 628.886892182669 0 0 0
221 1 1 0 676.8186462462377 674.8284126022979 649.9322141062559 0 0 0
222 1 1 0 682.3920592949504 669.4779355549123 649.6762450772417 0 0 0
60 1 1 0 623.4477209828414 655.9557627724888 636.1640330284239 0 0 0
224 1 1 0 672.4036488365615 625.9260930035271 637.1459645985093 0 0 0
225 1 1 0 624.9137302924395 627.8835373291749 625.2904063275496 0 0 0
226 1 1 0 651.9177313009096 628.9460993467676 670.7160905010614 0 0 0
227 1 1 0 624.9260778881278 679.5580715203558 632.5924659929665 0 0 0
228 1 1 0 652.6796947432631 628.7620864867206 673.4294536254087 0 0 0
229 1 1 0 678.9364167696486 660.6339679023941 635.8799259288152 0 0 0
230 1 1 0 649.0548966950125 624.3768692793616 680.1155684786501 0 0 0
231 1 1 0 652.5320089210569 624.070290958078 676.0901721099036 0 0 0
232 1 1 0 634.621023454156 642.1047757271516 629.6254943962198 0 0 0
233 1 1 0 660.7513597986225 667.2053032882161 682.8258792511234 0 0 0
2235 1 1 0 685.5219939628639 658.8862479193021 656.6045729324662 0 0 0
235 1 1 0 625.0936106144485 627.3090866129851 630.1041127447976 0 0 0
7567 1 1 0 660.2578739166761 656.8590578746192 623.124637360788 0 0 1
237 1 1 0 654.7898053337893 631.6514149879429 667.4652391930506 0 0 0
238 1 1 0 655.4326601619113 669.1873955508617 685.6202026432509 0 0 0
239 1 1 0 651.4923313143034 628.1577673370148 672.9669437100022 0 0 0
240 1 1 0 624.3914674946697 650.4094079446685 684.6893328341799 0 0 0
241 1 1 0 624.693681329178 660.8311823384231 643.868876989092 0 0 0
242 1 1 0 632.0528663321652 643.5402496280117 627.8029996419842 0 0 0
243 1 1 0 635.854328056941 644.8489316836108 628.9256528945683 0 0 0
244 1 1 0 624.2362283404981 651.8620548200786 682.3711664804927 0 0 0
11327 1 1 0 634.574564856682 686.6463958730646 629.3363349504972 0 0 0
246 1 1 0 628.12205905433 654.1495308772232 670.2716328220329 0 0 0
247 1 1 0 656.3699056953159 631.9964542660795 667.4466046591591 0 0 0
248 1 1 0 631.6564661689104 645.8662954939357 627.0287400051429 0 0 0
249 1 1 0 653.2306998266588 628.1881163660676 674.6042439709814 0 0 0
250 1 1 0 652.9626813018707 631.1158666342834 669.0920691089817 0 0 0
2663 1 1 0 669.7617464251591 623.2310940340027 635.3559686353403 0 0 0
252 1 1 0 632.7361833848037 638.6927372425849 629.8619694876211 0 0 0
253 1 1 0 631.7497662260782 648.2775747306412 626.9087604402569 0 0 0
254 1 1 0 649.9926514282959 676.1149504961252 684.9712264583318 0 0 0
255 1 1 0 629.129589921457 631.4046173039823 629.7911955512258 0 0 0
256 1 1 0 652.3703577778649 628.5566503551089 676.9549121688518 0 0 0
257 1 1 0 626.9587063579178 648.4438757440091 676.8876684807078 0 0 0
258 1 1 0 681.8832450097857 668.8684396561 655.0695368570935 0 0 0
259 1 1 0 661.0103153672896 665.9690549943413 682.1574153461879 0 0 0
260 1 1 0 646.8612606053382 654.7976165597887 627.0535093580804 0 0 0
261 1 1 0 645.7509408060397 653.8283646250642 628.9551915124066 0 0 0
262 1 1 0 645.6777913169012 654.6724738648766 627.8467461374313 0 0 0
263 1 1 0 644.6109073006085 653.0741282554148 629.2785575640562 0 0 0
264 1 1 0 643.384815894247 652.9966497136819 628.6361921773316 0 0 0
265 1 1 0 642.2189795226142 652.1247395434262 628.6886629916307 0 0 0
266 1 1 0 660.580707426737 666.9135872258481 684.1632235269974 0 0 0
267 1 1 0 659.9689111762588 665.738553392911 681.2674239554713 0 0 0
268 1 1 0 652.3479108879549 628.6713640287956 669.4399446575109 0 0 0
269 1 1 0 645.7831476182764 653.5693051353721 624.9916573300525 0 0 0
270 1 1 0 644.5078551889615 654.5237880638662 627.0331583152712 0 0 0
271 1 1 0 644.6035943776673 653.8239950976205 625.8308565748197 0 0 0
272 1 1 0 643.2919891895634 654.069873408386 627.6763699241563 0 0 0
273 1 1 0 642.1221043410482 654.0469207782425 626.9319621330839 0 0 0
274 1 1 0 640.9695601870078 653.8753686746371 627.7109732613908 0 0 0
275 1 1 0 660.2000628375567 657.4965058495926 624.386823814717 0 0 0
907 1 1 0 641.170991101779 685.7430919611772 684.8842733607312 0 0 0
277 1 1 0 627.4669735857103 653.9822628080814 671.4439908180221 0 0 0
278 1 1 0 654.6465671212418 630.2385812687131 667.0092255946741 0 0 0
279 1 1 0 643.6331204536883 652.9085409598683 625.6487053521925 0 0 0
280 1 1 0 644.0566038302626 651.5980910386054 625.5109421966533 0 0 0
281 1 1 0 642.2062561550204 653.4117444416243 625.4427332776594 0 0 0
282 1 1 0 641.3101428565066 652.225823689675 625.8996698482106 0 0 0
283 1 1 0 639.9079910432844 652.8014896479111 625.8777393844525 0 0 0
284 1 1 0 630.1677227993295 653.8910887128048 631.40451907797 0 0 0
285 1 1 0 657.86781950051 667.8864436963786 686.0359997676051 0 0 0
286 1 1 0 651.384855777303 627.9482058962005 671.5637320189952 0 0 0
287 1 1 0 683.6545236221008 631.081853994333 627.3220421560887 0 0 0
288 1 1 0 643.0787844737374 650.607677903968 625.7324618858823 0 0 0
289 1 1 0 655.2828404317306 666.3320997522065 685.7917652500981 0 0 0
290 1 1 0 641.9875660073726 651.1385364427929 626.4569476161923 0 0 0
291 1 1 0 640.0319164773687 649.7415791916296 626.6638537050441 0 0 0
292 1 1 0 638.8229609138876 650.4663291528416 626.1673848185848 0 0 0
293 1 1 0 641.7729079588389 650.9447297362707 627.890441687464 0 0 0
294 1 1 0 640.4909093718959 650.1958726790772 628.0135551432404 0 0 0
295 1 1 0 639.6548227479013 650.8277614296717 629.0989542224766 0 0 0
296 1 1 0 637.9793509419218 649.055413042751 629.9187843967687 0 0 0
297 1 1 0 638.5684739393465 650.3532200967138 629.9295725371865 0 0 0
298 1 1 0 635.9959871015735 649.9194535296893 630.2074591794282 0 0 0
299 1 1 0 636.5057840291914 648.3951569769043 630.3872816314112 0 0 0
300 1 1 0 641.0068827788945 652.9375305284977 628.811500568054 0 0 0
301 1 1 0 639.8426184534314 652.2335570684497 629.1934878549947 0 0 0
302 1 1 0 638.7430699737048 653.077769077455 629.063839544892 0 0 0
303 1 1 0 637.7469833916903 651.4220034479333 630.4630852797815 0 0 0
304 1 1 0 637.6490834228083 652.7572565220054 629.8711194393053 0 0 0
305 1 1 0 636.4959254445047 651.0709364884451 631.0023734489588 0 0 0
306 1 1 0 635.5793522316861 652.1455250725264 631.3323935669081 0 0 0
307 1 1 0 639.7621296267259 653.7712902600592 626.9964815158462 0 0 0
308 1 1 0 638.5601038908578 653.677905629886 627.7654943544087 0 0 0
309 1 1 0 637.3428478808917 653.4130957096837 627.1554838603788 0 0 0
310 1 1 0 636.4286818705687 653.375197945866 629.5132824254614 0 0 0
311 1 1 0 636.2857307240643 653.2141698525344 628.0543889039419 0 0 0
312 1 1 0 635.2563482860407 653.0572623252822 630.288663531177 0 0 0
313 1 1 0 633.7675907395948 652.8809977201106 629.591443234969 0 0 0
314 1 1 0 638.7277986692217 651.8320733078125 625.9851473188822 0 0 0
315 1 1 0 637.3328523792552 652.6415902313906 625.7912374427411 0 0 0
316 1 1 0 636.1596982279738 651.7991610245766 625.6251147790158 0 0 0
317 1 1 0 635.4919470159783 652.0937723372409 627.8859801985752 0 0 0
318 1 1 0 635.6643639739035 651.1428497412387 626.9365049121803 0 0 0
319 1 1 0 634.7462753771234 651.646079864589 628.9600025259208 0 0 0
320 1 1 0 634.7760244937571 650.3855856276285 629.4839670372594 0 0 0
321 1 1 0 628.6854267355808 636.3300678595757 628.9583623606776 0 0 0
322 1 1 0 631.6758493419562 637.9632799943271 630.6380238652239 0 0 0
323 1 1 0 656.013568844835 631.0613654328954 665.36757593412 0 0 0
324 1 1 0 625.9730775547671 659.145425467058 630.0351325843861 0 0 0
325 1 1 0 663.6508203669447 629.7320887459673 652.5745721572359 0 0 0
326 1 1 0 685.0696047977314 664.7348491479901 654.1642285749103 0 0 0
327 1 1 0 640.4924969452701 648.8119323172765 625.542682430336 0 0 0
328 1 1 0 639.3748335910625 648.456207587538 624.5811227946732 0 0 0
329 1 1 0 638.0588078489137 648.544172767741 624.8472702257081 0 0 0
330 1 1 0 652.9255886527446 629.7108531099458 668.6510290730099 0 0 0
331 1 1 0 626.4718133060702 637.4277316579216 628.7831929513072 0 0 0
332 1 1 0 662.9497875889516 625.119034774613 664.8599426308915 0 0 0
333 1 1 0 625.2599226397224 651.4476763653049 672.0431618697675 0 0 0
334 1 1 0 684.4725590597816 668.2651930863558 654.8196751714033 0 0 0
335 1 1 0 662.5501791453531 682.0490839846186 636.1578057383309 0 0 0
336 1 1 0 627.835522707092 625.1201757674496 632.8680465023056 0 0 0
337 1 1 0 625.8850150641787 624.62094452695 634.8995884934676 0 0 0
338 1 1 0 640.2331215699306 683.845399677242 677.2955291799826 0 0 0
339 1 1 0 637.764611970704 649.7163881532152 625.605294144943 0 0 0
340 1 1 0 636.5026480810824 650.2307890250122 625.3364327515841 0 0 0
341 1 1 0 635.5274180792752 649.2473782177269 625.3110521650799 0 0 0
342 1 1 0 635.7379578596577 649.8606870196053 627.4940054550856 0 0 0
343 1 1 0 635.4141808571526 648.7997152168684 626.624212244665 0 0 0
344 1 1 0 636.3739756428873 649.4824271227934 628.7097696692751 0 0 0
345 1 1 0 637.3516718534884 648.4014183706926 628.5683494145538 0 0 0
2676 1 1 0 622.9946910245205 662.0701713891134 642.2153746742096 0 0 0
347 1 1 0 635.569023945327 648.3003184268069 624.1501391814496 0 0 0
348 1 1 0 634.9588350595106 646.9943401769794 624.6726028305048 0 0 0
349 1 1 0 635.7995677601225 647.4818088688958 626.8422607034845 0 0 0
350 1 1 0 635.1953738542752 646.5577484674718 626.044703675095 0 0 0
351 1 1 0 636.659683837296 647.1943837654549 627.9981206607212 0 0 0
352 1 1 0 636.3146609501375 646.1884156524976 629.1437939512871 0 0 0
353 1 1 0 680.5601273353676 660.7111561034149 637.785575731146 0 0 0
354 1 1 0 679.0676818520395 660.6985974345789 637.4174306714657 0 0 0
355 1 1 0 681.1254209807016 661.663695418301 638.7119712503109 0 0 0
356 1 1 0 680.4575929901416 662.8950236064768 638.7050763577688 0 0 0
357 1 1 0 683.0164065139435 663.2202716224737 639.7328918496862 0 0 0
358 1 1 0 680.3178376486773 663.5207891933903 639.9076666636524 0 0 0
359 1 1 0 682.314614536332 661.9358152246675 639.4807753372509 0 0 0
360 1 1 0 682.4781026693933 661.6497109945229 640.9385970148917 0 0 0
361 1 1 0 683.8530907026177 661.7555434283358 641.3270141529575 0 0 0
362 1 1 0 678.2433344791856 661.3752496535602 638.3054314353734 0 0 0
363 1 1 0 677.9351578265779 662.7673698186708 637.920148058939 0 0 0
364 1 1 0 678.093085337567 661.025588768046 639.6887567549783 0 0 0
365 1 1 0 678.0863428632222 661.831481395755 640.9189363949811 0 0 0
366 1 1 0 680.2962785561832 662.5464535233652 640.9706180081049 0 0 0
367 1 1 0 679.1242702785431 662.3626059191804 641.6391356737736 0 0 0
368 1 1 0 681.4796474331754 662.3047138143615 641.6806651524631 0 0 0
369 1 1 0 681.4697412397458 663.2537651344463 642.7779657484375 0 0 0
370 1 1 0 676.8809540560885 663.3534237833677 638.6774244563101 0 0 0
371 1 1 0 676.2390597144332 662.9695908102162 639.9120389656413 0 0 0
372 1 1 0 676.9664523842137 662.5992134459827 641.0771596720607 0 0 0
373 1 1 0 676.7156761859582 663.1763823186254 642.300053373504 0 0 0
374 1 1 0 679.0311644644568 663.1612519219857 642.7890626600166 0 0 0
375 1 1 0 677.7759599139715 663.7338725692839 643.0298682568292 0 0 0
376 1 1 0 680.2505829425219 663.802439418818 643.198892362756 0 0 0
377 1 1 0 680.3713274329349 665.4005564001665 643.5276199266191 0 0 0
378 1 1 0 674.9011147789087 663.0642897192882 640.254397150529 0 0 0
379 1 1 0 674.4392704160597 663.2804609655103 641.5651575910028 0 0 0
380 1 1 0 675.439520502341 663.6766179519698 642.5668903564908 0 0 0
381 1 1 0 675.2586305017003 665.0481758145108 642.8044140707918 0 0 0
382 1 1 0 677.7561818819112 665.1898510974735 643.2488852651392 0 0 0
383 1 1 0 676.4270987868579 665.7681035523364 642.6892554006658 0 0 0
384 1 1 0 678.9634420058121 665.7967255517672 642.9215565063815 0 0 0
385 1 1 0 678.9314114989892 666.366641017153 641.6136271042259 0 0 0
386 1 1 0 673.227150259265 664.1557627302093 641.7243986647752 0 0 0
387 1 1 0 672.2602063806744 663.9564606171234 640.6835334723394 0 0 0
388 1 1 0 673.9468341253859 665.4130655181636 642.1575310507765 0 0 0
389 1 1 0 674.0456170344764 666.2400584588192 640.9549247611012 0 0 0
390 1 1 0 676.4788655417897 666.6547626357202 641.5787858204116 0 0 0
391 1 1 0 675.3778287008947 666.6389509707323 640.5716780789606 0 0 0
392 1 1 0 677.7609425923038 666.9492639698154 641.0735570061847 0 0 0
393 1 1 0 677.9028658962426 667.0518368718942 639.6451216362425 0 0 0
394 1 1 0 671.663182436841 665.1685338737079 639.8431961580219 0 0 0
395 1 1 0 671.1051441488422 664.8379956303439 638.516232489997 0 0 0
396 1 1 0 673.2052234289671 665.6070111213194 639.9062899412368 0 0 0
397 1 1 0 673.9706674436072 664.8196702883788 639.0129715819618 0 0 0
398 1 1 0 675.7024995935584 666.4170409964995 639.2148654693948 0 0 0
399 1 1 0 675.1849213226284 665.271026175862 638.6163170844586 0 0 0
400 1 1 0 676.9245622901022 666.8679051248791 638.7355374846045 0 0 0
401 1 1 0 677.3148203501598 666.4020157717399 637.4645267070658 0 0 0
402 1 1 0 672.6686306757837 662.9214126589135 639.8606873824423 0 0 0
403 1 1 0 672.1140338527603 661.7427504961009 639.4804738091519 0 0 0
404 1 1 0 673.9561301829252 663.3649146828864 639.1839342346975 0 0 0
405 1 1 0 674.2274384653099 662.6753598272056 637.8979896879046 0 0 0
406 1 1 0 676.0445634827913 664.287742637105 637.8384495650844 0 0 0
407 1 1 0 675.1129337024481 663.3476356442884 637.0711144806497 0 0 0
408 1 1 0 676.6805048444608 665.3335297993864 636.8758248759549 0 0 0
409 1 1 0 676.7622378172136 665.1636573859768 635.518511436148 0 0 0
410 1 1 0 666.7743284866356 667.157755006835 637.3177600894558 0 0 0
411 1 1 0 624.5708961624434 624.4626133545598 638.7367089156013 0 0 0
12442 1 1 0 682.4401771787014 623.4878170359373 623.526810656441 0 1 0
413 1 1 0 653.5388391707561 625.8607514455473 679.1613011947957 0 0 0
414 1 1 0 641.5811238180713 683.5497999699506 676.3866120787407 0 0 0
415 1 1 0 684.1034126606236 660.0549731487225 634.6730147721086 0 0 0
416 1 1 0 626.9124008309406 626.647192348893 635.6507198247621 0 0 0
417 1 1 0 625.7578176501712 627.3057941743383 631.308748277325 0 0 0
418 1 1 0 657.4026877538597 667.587182493465 684.823859547355 0 0 0
419 1 1 0 628.0810208259896 627.4002334083289 635.2601638980568 0 0 0
420 1 1 0 631.4850821299817 647.0698083017785 630.717731053404 0 0 0
421 1 1 0 661.5207660751705 685.773658044194 635.0536968356414 0 0 0
422 1 1 0 648.4160674976561 680.7404630368716 682.115484900082 0 0 0
423 1 1 0 623.5838123274391 663.7470229420524 636.0626309989182 0 0 0
424 1 1 0 682.827519406658 663.8157213588428 642.853982205789 0 0 0
425 1 1 0 684.8505309588869 661.4710379635028 640.2723799438945 0 0 0
426 1 1 0 685.3928673874578 660.5735257779306 639.3380446755559 0 0 0
427 1 1 0 685.4498766941722 662.8740517431334 639.8638251643474 0 0 0