LAMMPS data file via write_data, version 2 Aug 2023, timestep = 50000, units = metal

19368 atoms
1 atom types

643.4486685572117 724.9853314428067 xlo xhi
643.957293006217 725.1857069937748 ylo yhi
643.8772639923892 725.2657360076026 zlo zhi

Masses

1 12.0107

Atoms # full

1 1 1 0 647.5579091095319 652.2001816776751 646.9032385570099 0 0 0
2 1 1 0 673.0027676679885 649.889681090137 678.9306568262826 0 0 0
3 1 1 0 646.5229926316117 652.0618226009699 647.8807634410734 0 0 0
4 1 1 0 678.0376481088877 646.3424391140043 676.9855928345092 0 0 0
5 1 1 0 648.4970233259188 650.0273894282889 647.6400479043693 0 0 0
6 1 1 0 646.3850542694062 650.8137665015787 648.5225124428121 0 0 0
7 1 1 0 647.4055237386008 649.8907191013684 648.5230317611039 0 0 0
945 1 1 0 666.4332893989695 649.7228338355434 684.5095696246638 0 0 0
9 1 1 0 649.5110547849065 649.0321624908784 647.6319775431506 0 0 0
10 1 1 0 649.3628227161681 647.8079210536489 648.3475911446094 0 0 0
11 1 1 0 647.1774116987565 648.5693245092772 648.9732592196317 0 0 0
12 1 1 0 648.1610766022189 647.616700756095 649.0646698350031 0 0 0
13 1 1 0 645.8807036563774 648.1690107958375 648.7306092136643 0 0 0
14 1 1 0 650.2217072714689 646.7168389071375 648.18866652531 0 0 0
15 1 1 0 650.0298547024994 645.4680042454322 648.8916263538674 0 0 0
16 1 1 0 647.7519640295857 646.2979332594336 649.3266169834882 0 0 0
17 1 1 0 648.7559848265026 645.2725157738843 649.4463421711162 0 0 0
18 1 1 0 646.5132414247001 645.8514994322445 648.9879015542053 0 0 0
19 1 1 0 651.6742542956215 644.3950304089244 647.3701339338301 0 0 0
20 1 1 0 650.8292853172735 644.3536209427747 648.6030328479385 0 0 0
21 1 1 0 661.2078226320701 673.3552227033327 645.1701978124884 0 0 0
22 1 1 0 650.4281146539965 670.9698845144402 646.5373948471052 0 0 0
23 1 1 0 675.5631405382267 668.0635421414485 644.1741434010892 0 0 0
24 1 1 0 681.5342624004351 646.4122640665117 681.7158821353248 0 0 0
25 1 1 0 677.9924644654778 664.9055273391589 646.895601524164 0 0 0
26 1 1 0 675.043627430073 648.7391009479301 679.418556949854 0 0 0
27 1 1 0 680.6201334199251 672.7098856556267 655.631070742219 0 0 0
28 1 1 0 645.726706959479 665.1802397085345 661.6217555263005 0 0 0
29 1 1 0 655.3176075328157 674.292338271958 647.412660156454 0 0 0
30 1 1 0 660.3594683091567 669.4864755404827 647.383312630292 0 0 0
31 1 1 0 645.5028207592937 646.8127997063874 648.9467472839364 0 0 0
32 1 1 0 646.2251136200356 644.5619136476711 648.7884313097626 0 0 0
33 1 1 0 645.8590160918927 675.1583030761577 646.7350814306072 0 0 0
3078 1 1 0 658.6536583449898 651.9676234539155 684.3476362486565 0 0 0
35 1 1 0 683.2406022954568 679.0422926926655 679.4877388061786 0 0 0
859 1 1 0 649.6188214832779 672.1859607952949 644.4214114892987 0 0 0
37 1 1 0 645.1464938518798 675.3497799924411 659.0398131713539 0 0 0
38 1 1 0 651.0550709939388 652.687657256518 645.1117885149216 0 0 0
39 1 1 0 645.2979234185257 681.8876578235294 680.3363476782649 0 0 0
40 1 1 0 649.6895547244269 652.4588418956566 645.2082332002697 0 0 0
41 1 1 0 647.5878413686384 653.373324549085 646.0135090421626 0 0 0
42 1 1 0 649.5445483961275 651.2000339772293 645.8435536451356 0 0 0
43 1 1 0 650.5010037646508 650.1990204933576 645.7877086178373 0 0 0
44 1 1 0 648.4831102049643 651.1258487102572 646.8056786428484 0 0 0
45 1 1 0 650.528732960161 649.1582055480015 646.7164091093383 0 0 0
46 1 1 0 651.4773087658505 648.1003889186894 646.5777993806887 0 0 0
47 1 1 0 651.0543152768478 646.8577232390021 647.0717795250158 0 0 0
1740 1 1 0 656.9106785059371 649.9326225729628 684.257986629736 0 0 0
49 1 1 0 681.4936016053923 680.6340505910986 679.1892624304294 0 0 0
50 1 1 0 661.6330753640193 682.8815989622177 648.9538866859871 0 0 0
51 1 1 0 680.732699207851 681.1490136208809 680.2505658601084 0 0 0
647 1 1 0 647.3736887463496 646.675690019319 681.5255017366878 0 0 0
53 1 1 0 671.5847685446258 650.5331434157725 680.6510714783674 0 0 0
54 1 1 0 648.2656214427503 644.5558428550802 680.8891667645971 0 0 0
2369 1 1 0 684.0089557298758 664.9118161272391 648.7497613509162 0 0 0
56 1 1 0 646.9603740260459 662.8909311184108 682.5540707095611 0 0 0
57 1 1 0 682.573852163254 652.0201659914259 682.7366978479719 0 0 0
58 1 1 0 664.0560762228795 650.6205204428405 660.5039646782981 0 0 0
2336 1 1 0 665.334287162837 668.4685712400932 684.552994502093 0 0 0
60 1 1 0 649.9783723988576 656.6818328667036 645.4316457222047 0 0 0
1491 1 1 0 645.9820205671953 684.1337965208481 675.8644006314214 0 0 0
62 1 1 0 651.569253642435 650.2653324443739 644.8866307259675 0 0 0
63 1 1 0 681.2550381388962 682.2945551210455 682.2848870405745 0 0 0
12202 1 1 0 682.7852836768384 680.1487699851484 654.5215904242 0 0 0
65 1 1 0 675.5244775069234 646.11832401625 651.62821712544 0 0 0
66 1 1 0 668.266012766321 652.0889177432033 658.2213825420499 0 0 0
12253 1 1 0 683.4566408379166 681.0806242083753 655.2051925971624 0 0 0
68 1 1 0 673.0814010140633 645.3093470191101 666.3265485152629 0 0 0
69 1 1 0 652.4494342160314 649.1802763742907 644.7498002948709 0 0 0
70 1 1 0 652.6153216184229 648.2552514135139 645.8428047280407 0 0 0
7558 1 1 0 682.4146154892564 684.265317076096 660.2431646430698 0 0 0
72 1 1 0 651.0922552137397 675.0391522218259 649.3512510416891 0 0 0
73 1 1 0 657.4265171243699 666.7225537694238 649.3705948178178 0 0 0
74 1 1 0 682.2788818168978 668.5594808003399 649.2881986462605 0 0 0
75 1 1 0 673.2811389226525 645.0922753003296 658.9787393386914 0 0 0
76 1 1 0 652.7956259281757 646.5897711769068 644.697994387877 0 0 0
77 1 1 0 651.9698968156838 645.5556851121218 645.2031761503171 0 0 0
78 1 1 0 651.4995727301539 645.6432924243505 646.4932943356267 0 0 0
79 1 1 0 656.8326595390008 669.4356263492066 649.2577845734033 0 0 0
80 1 1 0 644.0964928938203 682.9978440083567 674.2324142269543 0 0 0
81 1 1 0 644.7754570212628 669.8120953545545 659.912009474409 0 0 0
82 1 1 0 646.9613868443024 665.7268913837811 661.3538245445685 0 0 0
83 1 1 0 648.4141573354312 645.9811421404244 680.9132819868938 0 0 0
84 1 1 0 672.1588280958998 649.6670565001192 671.5498656742559 0 0 0
175 1 1 0 677.9871893822565 656.7199363369451 644.2002530506359 0 0 0
86 1 1 0 644.6871459693438 667.341304257654 661.1899324714911 0 0 0
87 1 1 0 671.5090568484355 649.9410905047719 670.3560862613749 0 0 0
88 1 1 0 665.5444973842039 681.5174511534432 650.3602728083896 0 0 0
89 1 1 0 646.2762432145961 683.7821001392364 673.5053568855535 0 0 0
90 1 1 0 647.0105661680767 669.2501276963419 659.1230846529246 0 0 0
91 1 1 0 645.1654922673973 673.8833023104111 659.139597465813 0 0 0
92 1 1 0 646.2095047741082 672.9780723396015 658.5978607014038 0 0 0
93 1 1 0 667.9187932935607 653.0166428982079 664.7716018451475 0 0 0
94 1 1 0 653.2793069036852 659.1339422594668 647.9582398468557 0 0 0
95 1 1 0 682.508653420761 647.961399221814 679.5465220680915 0 0 0
96 1 1 0 676.6353111317138 647.791088940539 675.6639664629887 0 0 0
97 1 1 0 660.4315382437876 676.4051625490112 644.9124221798836 0 0 0
98 1 1 0 645.3088036598393 677.6654731657916 648.448239174483 0 0 0
99 1 1 0 669.9193540883568 651.6333854484556 663.7838010559058 0 0 0
861 1 1 0 670.8900540937736 671.0353339318625 644.4756478148105 0 0 0
101 1 1 0 654.8866675006948 653.0830118597149 645.6605221746183 0 0 0
102 1 1 0 675.1782286899429 646.8594437752619 653.9765604882637 0 0 0
103 1 1 0 656.1962506063763 646.6652476962681 644.8912559957895 0 0 0
104 1 1 0 656.4185277897619 654.7982268256256 644.8995492821924 0 0 0
105 1 1 0 657.4198548201897 655.5114127136255 645.6944918064496 0 0 0
106 1 1 0 655.447138706632 654.2886929869472 645.9820783145657 0 0 0
107 1 1 0 654.7347129895136 655.3145086838754 646.6898663622084 0 0 0
108 1 1 0 648.7868940700101 682.7324621726802 674.5118599472371 0 0 0
109 1 1 0 658.4407618392373 658.0630104306973 645.4788723149234 0 0 0
110 1 1 0 656.8094464808049 656.4961148390803 646.4987527316243 0 0 0
111 1 1 0 657.2596169011027 657.7642503370995 646.1639010102627 0 0 0
112 1 1 0 655.5487130196007 656.333031939944 647.1389133504343 0 0 0
113 1 1 0 655.0269670600181 657.4593451727081 647.8418883570396 0 0 0
114 1 1 0 658.9374345374384 659.3495025701756 645.5623505402718 0 0 0
115 1 1 0 658.3513549060746 660.3621414047634 646.2465090551458 0 0 0
116 1 1 0 656.4162606947392 658.9659230363018 646.5400114968548 0 0 0
117 1 1 0 657.276572577892 660.0815520851613 646.9845789336945 0 0 0
118 1 1 0 655.7789593441523 658.6985437470854 647.9183237467007 0 0 0
119 1 1 0 655.6611741872011 660.0010915996645 648.5359603095935 0 0 0
120 1 1 0 658.7221156880196 661.6804451992257 646.227603044507 0 0 0
121 1 1 0 658.2841340150492 662.6475152531536 647.1672396722824 0 0 0
122 1 1 0 656.7184810710133 660.8716978850994 648.0303463136389 0 0 0
123 1 1 0 657.0110317149209 662.3330974262981 647.7567510878739 0 0 0
124 1 1 0 659.3568890839533 664.8944083637247 647.5584786424076 0 0 0
125 1 1 0 659.3901601022374 663.589819114903 647.0832366817847 0 0 0
126 1 1 0 647.7544825621958 681.8572068530115 674.1901799141766 0 0 0
127 1 1 0 673.2238966168419 652.3482981076944 678.9732075273649 0 0 0
2427 1 1 0 665.5193595149988 684.4420776743884 657.6800804837646 0 0 0
129 1 1 0 683.3605775985249 652.0601720240968 650.6233068458728 0 0 0
130 1 1 0 672.2129760399389 651.12868937722 679.4523830938117 0 0 0
131 1 1 0 670.3340550105373 650.0905956110287 655.7796211979244 0 0 0
132 1 1 0 658.867058627077 671.1851414546467 648.0703238844821 0 0 0
133 1 1 0 658.21342770914 667.6028387729621 648.6333639813802 0 0 0
134 1 1 0 655.8875022215552 670.3663588031294 676.1252802320698 0 0 0
135 1 1 0 681.2893812152698 682.2878067812433 680.878904619767 0 0 0
136 1 1 0 648.1077344761195 673.9590648182751 648.0138088991313 0 0 0
2553 1 1 0 643.8357616708491 664.8005097028731 680.0246752032261 0 0 0
138 1 1 0 670.5711113143905 650.4304601960953 664.0466274337532 0 0 0
139 1 1 0 681.5585925205221 679.6616644140754 645.161951447611 0 0 0
669 1 1 0 643.9110334333315 644.4232765931245 649.7397086500986 0 0 0
141 1 1 0 669.7381979912581 647.4882014896812 681.7083636469919 0 0 0
142 1 1 0 668.9236592130162 647.1050179752954 682.7382835595886 0 0 0
143 1 1 0 661.8596316034306 660.9981525299062 644.4810209756391 0 0 0
144 1 1 0 659.9988182613382 659.6603314837239 644.7522670555271 0 0 0
145 1 1 0 660.5520299879735 660.8983476294072 644.8701733661045 0 0 0
146 1 1 0 659.9045513734568 661.9238785953778 645.5986217809116 0 0 0
147 1 1 0 660.5232112682671 663.0545988536235 646.1898357708732 0 0 0
148 1 1 0 663.611483333735 649.5085245877821 661.2434203611668 0 0 0
149 1 1 0 669.4651620217833 648.9289400470891 655.5458320624356 0 0 0
10058 1 1 0 643.5121251238545 662.1155159728506 667.8051857290602 1 0 0
151 1 1 0 680.1181433257813 680.1930748515963 681.1023966081533 0 0 0
152 1 1 0 672.7790891102673 648.4345598812862 671.7106505118709 0 0 0
153 1 1 0 671.2113026749029 677.945217367925 682.2000584945307 0 0 0
154 1 1 0 662.6214002173728 662.0297297284569 645.0423200660458 0 0 0
155 1 1 0 661.9089871650472 663.0226333526062 645.7823482775949 0 0 0
156 1 1 0 679.2096045151146 658.5832883558817 647.0127985230185 0 0 0
157 1 1 0 679.3684074485573 660.9295651769652 647.4373570603923 0 0 0
158 1 1 0 678.7747961764785 659.885667417703 646.7698378804605 0 0 0
159 1 1 0 678.902108674317 662.2507542789153 647.3545134737737 0 0 0
160 1 1 0 677.8886334989448 662.4751548758813 646.3801133285169 0 0 0
161 1 1 0 666.0772423232808 665.7156888241979 683.499786455153 0 0 0
162 1 1 0 653.2284473888084 658.6461064852658 644.6961739601471 0 0 0
163 1 1 0 678.6550236864621 657.5360571308928 646.3126848100904 0 0 0
164 1 1 0 678.1362635521878 657.8200436102643 645.0775158175574 0 0 0
165 1 1 0 677.9485671009057 660.1368122385974 645.7432764420987 0 0 0
166 1 1 0 677.8360048090518 659.1479090223297 644.7202046887005 0 0 0
167 1 1 0 677.4417600544198 661.3920864919554 645.6400379106026 0 0 0
2393 1 1 0 643.7361607836315 648.0112397118888 653.2766758509053 0 0 0
169 1 1 0 664.5772095019823 646.0775126641645 662.3131169331102 0 0 0
170 1 1 0 663.9507367243082 647.4066989791858 664.910688109312 0 0 0
7549 1 1 0 644.3011389429328 683.7051106714549 662.7986993646583 0 0 0
172 1 1 0 670.0037317864916 648.8951003379522 681.5678493632784 0 0 0
6303 1 1 0 646.1861148256698 684.5361395235718 666.3768834038943 0 0 0
174 1 1 0 678.10260989535 655.396426790446 644.7636747219518 0 0 0
1107 1 1 0 643.9916482011133 673.2799252235848 659.8472558667232 0 0 0
176 1 1 0 664.4216678209287 673.8054976337897 646.4108227322795 0 0 0
177 1 1 0 669.9199921885382 646.6493396767631 680.6309185160097 0 0 0
178 1 1 0 668.3827621344407 646.4646091518296 654.8093773108357 0 0 0
179 1 1 0 670.0769237490467 654.3308238520067 658.783920651757 0 0 0
180 1 1 0 672.6387277641215 646.2825867426759 678.2725518019272 0 0 0
181 1 1 0 652.1113499517875 673.7643089568169 645.9315981924136 0 0 0
182 1 1 0 653.7039093643306 664.3233169512437 646.8529465144685 0 0 0
183 1 1 0 683.6579302245956 664.872953674713 671.461492177689 0 0 0
184 1 1 0 658.1108809696408 668.9935480747482 648.7048062322051 0 0 0
5854 1 1 0 672.2203322751775 644.7549755280734 656.2368159250274 0 1 0
1783 1 1 0 667.55917130744 659.0296292773692 684.0508597103199 0 0 0
187 1 1 0 674.8606970121666 655.7536416347722 644.6401467003546 0 0 0
188 1 1 0 671.03791426236 650.0054104097311 661.7146979210248 0 0 0
85 1 1 0 651.9589990152614 644.3609617853234 644.467561693666 0 0 0
190 1 1 0 665.6209768101666 646.548972989517 660.2108912987427 0 0 0
191 1 1 0 664.6738860990791 647.6040737866658 662.5987743783359 0 0 0
192 1 1 0 680.7544200756222 678.3058890738283 679.2414827597595 0 0 0
193 1 1 0 675.4901694139251 645.5470223096618 654.4243948357979 0 0 0
709 1 1 0 643.6382985345183 645.0961768277941 652.8065442458678 0 0 0
195 1 1 0 675.1728348658023 647.1073493907004 652.5744646708944 0 0 0
2558 1 1 0 644.8821972863979 678.8780694408962 684.2289545853346 0 0 0
197 1 1 0 677.9784354983763 647.3728205984032 677.9406787004602 0 0 0
198 1 1 0 679.1905602708284 679.1175938535241 680.8671081001366 0 0 0
199 1 1 0 668.825550212472 654.0947239381017 662.8578481069809 0 0 0
200 1 1 0 673.8939077195723 649.3862933062093 673.6888772228388 0 0 0
201 1 1 0 645.9416030383082 662.5388077031696 683.4571296007204 0 0 0
202 1 1 0 670.4855976600446 651.4633970948212 668.7468826255677 0 0 0
203 1 1 0 669.956283385651 651.2761088844584 682.2644884445793 0 0 0
204 1 1 0 645.9109298230294 667.8477570948152 660.7403031557076 0 0 0
205 1 1 0 667.0290377615642 652.6079018235072 665.8832194366883 0 0 0
261 1 1 0 663.2482236061159 644.1817118343633 662.911511584802 0 0 0
207 1 1 0 681.0911150020632 659.3777361475671 648.257880903515 0 0 0
208 1 1 0 681.4491198310387 661.7302611406619 648.3891447348246 0 0 0
209 1 1 0 680.5838351509564 660.6440206040833 648.1321059782832 0 0 0
210 1 1 0 680.9021843863068 663.0326134639922 648.5028607058459 0 0 0
211 1 1 0 679.5322745606154 663.2808830781466 648.023591967408 0 0 0
212 1 1 0 678.911840861891 664.5314642312326 647.9580519570161 0 0 0
213 1 1 0 671.2986407186379 652.2194620146336 659.0814196072527 0 0 0
214 1 1 0 674.4993559920825 647.6710305788232 678.6954468570899 0 0 0
215 1 1 0 681.5204674542498 678.0677880512992 654.4737944267766 0 0 0
216 1 1 0 668.6319107555637 648.4807978346807 657.859602594526 0 0 0
217 1 1 0 667.3527814156818 646.2336218580539 656.9262652129913 0 0 0
218 1 1 0 674.196713760982 660.2832544771902 644.6687031013836 0 0 0
907 1 1 0 673.6717686107983 658.0026509023934 644.0348699345274 0 0 0
220 1 1 0 673.8812545316039 658.9242854353199 645.1042171419103 0 0 0
221 1 1 0 677.1909608556389 646.5203959182693 675.9048639771494 0 0 0
222 1 1 0 670.3672420914804 662.7977348617856 645.29042403357 0 0 0
223 1 1 0 648.5419217944566 653.261267185012 644.9204269583954 0 0 0
224 1 1 0 668.4323105489696 662.8778550315703 646.7001690228477 0 0 0
225 1 1 0 675.1432811178362 644.9187021150195 645.4605323606781 0 0 0
226 1 1 0 647.4502348306165 673.2927998887432 647.0075834120934 0 0 0
227 1 1 0 673.1575564564774 647.601896027667 678.3417833432345 0 0 0
228 1 1 0 663.5205781854118 645.9701628328576 664.5794401126968 0 0 0
229 1 1 0 673.0189953862972 644.7306778704007 664.0025050647728 0 0 0
230 1 1 0 653.050959890363 663.6127349696778 645.8749620920937 0 0 0
231 1 1 0 651.2585505705965 674.2065146344617 646.9675513875442 0 0 0
206 1 1 0 683.7336754777245 683.501186292703 678.315056272846 0 0 0
233 1 1 0 682.8466956995871 661.5652518184527 648.2525902026531 0 0 0
234 1 1 0 683.1715608055267 663.7931504125845 648.752319911042 0 0 0
235 1 1 0 681.8277457794103 663.968451913768 649.0457747657437 0 0 0
236 1 1 0 682.0788298589899 666.285638976202 648.8440131824372 0 0 0
237 1 1 0 681.391541042591 665.2438795953051 649.39615360618 0 0 0
238 1 1 0 681.6514395984052 667.5639996928884 648.5458112458635 0 0 0
239 1 1 0 680.368190239222 667.7656844729227 648.0600402330575 0 0 0
240 1 1 0 679.9512555277148 669.1648962133235 648.0880183116376 0 0 0
241 1 1 0 679.299128686485 665.5922681611312 648.8245034820687 0 0 0
242 1 1 0 679.2853359082042 666.8628656857342 648.1465897317335 0 0 0
243 1 1 0 678.203493996421 667.2716861372465 647.3111568060152 0 0 0
244 1 1 0 670.7061321730914 649.9964529900103 665.3264502815018 0 0 0
245 1 1 0 683.5228420541494 668.4597091631572 651.3594222874227 0 0 0
246 1 1 0 651.6278090672175 653.8552303363481 645.5570111420824 0 0 0
247 1 1 0 648.299137055527 673.7135060080133 650.336853667061 0 0 0
248 1 1 0 673.9912407709585 645.5457620706783 657.7930008033389 0 0 0
249 1 1 0 651.7930067689879 674.6905335379513 648.1556071718951 0 0 0
1785 1 1 0 667.6614989439702 661.4305134797871 684.1558651887915 0 0 0
251 1 1 0 668.6807453340546 648.2396654994224 656.4922293859612 0 0 0
252 1 1 0 664.5258310496727 683.7390099558947 653.0043874113662 0 0 0
253 1 1 0 679.6466691003511 677.9933074240001 680.063404431885 0 0 0
254 1 1 0 667.8447866556975 650.753709792574 658.5979046679826 0 0 0
1713 1 1 0 654.535288036144 651.0578205505108 644.5900900193226 0 0 0
256 1 1 0 669.4988408001657 652.3139972150223 657.4768290902875 0 0 0
257 1 1 0 660.7696625196756 683.4113894722466 661.5433135016665 0 0 0
258 1 1 0 682.8313614758231 646.2290382624719 657.3782959773031 0 0 0
259 1 1 0 671.3091085198702 648.3728002545629 666.9161657794311 0 0 0
260 1 1 0 664.5819717592886 668.0738796881999 645.5861689498163 0 0 0
2365 1 1 0 673.1456601221179 654.8549009128752 683.8216710040587 0 0 0
262 1 1 0 645.2004136867812 682.0922438956159 681.6758927137183 0 0 0
263 1 1 0 670.9980059950684 647.7114926286954 664.5643101353343 0 0 0
264 1 1 0 669.0044781930313 652.3274676835844 681.9901335590165 0 0 0
265 1 1 0 673.676891639774 645.0632202808786 667.5783316774705 0 0 0
266 1 1 0 667.7187544231247 668.8491041802118 645.8288848196456 0 0 0
267 1 1 0 676.8599684535608 645.3749790598371 675.1580730529226 0 0 0
268 1 1 0 665.7701856242674 667.3471507782297 645.3583430731493 0 0 0
269 1 1 0 663.9230540657651 667.6259921112248 646.7403059317734 0 0 0
270 1 1 0 662.7219373693407 667.7263665097338 648.8947859196903 0 0 0
271 1 1 0 663.8854853237341 667.4356928430094 648.1466123608748 0 0 0
272 1 1 0 662.6507249397669 667.5840369865812 650.2614581041431 0 0 0
273 1 1 0 663.8458275450963 667.5081675282576 650.9326673820839 0 0 0
274 1 1 0 666.8933301492057 667.7889288281576 646.2444502019189 0 0 0
275 1 1 0 666.7456222517028 667.7009771468357 647.6170403954345 0 0 0
276 1 1 0 667.4485817366001 668.6558208875086 648.4411498801849 0 0 0
277 1 1 0 664.9638871346107 666.8484957230593 648.9168807518112 0 0 0
278 1 1 0 666.2120323250674 666.6515450232047 648.2989338954453 0 0 0
279 1 1 0 665.0132810246889 667.0191415644806 650.2941134829924 0 0 0
280 1 1 0 666.220395422333 666.6583560793907 650.9629660655067 0 0 0
281 1 1 0 668.7593273373259 669.226316232519 646.6654040795344 0 0 0
282 1 1 0 668.7631951313862 668.8857764319546 648.016770451683 0 0 0
283 1 1 0 669.9442408839774 668.1484413437562 648.3926494197033 0 0 0
284 1 1 0 668.4085892525965 666.5668795604699 649.7793939907497 0 0 0
285 1 1 0 669.5654115866253 666.8880539049513 648.9627955791888 0 0 0
286 1 1 0 667.7580034042472 666.8078596841508 651.0497850695209 0 0 0
287 1 1 0 667.2959268047413 665.7011363941265 648.8379375790626 0 0 0
288 1 1 0 669.7288050025248 665.8703174169958 648.0057896790829 0 0 0
289 1 1 0 668.5467535417671 665.1003948567363 647.9402142406966 0 0 0
290 1 1 0 668.526321251929 664.2287979509172 646.8836340883516 0 0 0
2195 1 1 0 664.3221114209083 644.4450970447732 660.6780839293579 0 0 0
36 1 1 0 677.4366537971129 644.0859013801736 675.4050937886777 0 0 0
293 1 1 0 674.4724427805128 644.9835834225793 646.7896741308982 0 0 0
294 1 1 0 674.6790367659792 646.3438419295462 647.3161283453796 0 0 0
295 1 1 0 672.6888594498774 645.851226934011 648.7949601036964 0 0 0
296 1 1 0 672.1791646897235 645.8344006889934 650.1590568283095 0 0 0
297 1 1 0 673.8831368802986 646.6075563587136 648.4417152138774 0 0 0
298 1 1 0 675.3305723336144 646.5323955954574 645.1920450304892 0 0 0
299 1 1 0 676.0070616014768 646.9040820568013 646.7018048405943 0 0 0
300 1 1 0 674.5550714137679 647.0507723857885 649.6936313074883 0 0 0
301 1 1 0 675.5092910689702 646.1828270134432 650.2412885167448 0 0 0
302 1 1 0 672.422533577275 646.9711743220284 650.9234708562959 0 0 0
303 1 1 0 671.8448529512667 647.2903704629592 652.1891663701739 0 0 0
304 1 1 0 673.7096437576996 647.6852959984919 650.7621250962356 0 0 0
305 1 1 0 674.2075912254827 648.0297888599773 652.1114359307226 0 0 0
306 1 1 0 652.1745148164254 665.8066793044767 645.7782649188384 0 0 0
307 1 1 0 669.9363353425456 648.3113803062082 654.2827546439645 0 0 0
308 1 1 0 672.0371957279898 648.5451998587304 652.8136164264605 0 0 0
309 1 1 0 668.278571418127 651.148018407036 661.3661943317196 0 0 0
310 1 1 0 673.3915625606389 648.7511462477238 653.055956112264 0 0 0
311 1 1 0 673.7532314882309 648.8167866829444 654.4317090394277 0 0 0
312 1 1 0 668.3337988981431 661.5507445895032 644.5851568267054 0 0 0
313 1 1 0 675.6257293406577 647.953119989199 674.7070615299173 0 0 0
314 1 1 0 680.9108950330194 644.3772001063943 680.6232946135127 0 0 0
315 1 1 0 681.6796427332557 647.8092478026318 681.7883435624669 0 0 0
316 1 1 0 671.0875623772715 649.2841864288959 668.0267824031544 0 0 0
317 1 1 0 661.327304094325 670.3248410966095 646.7949974582671 0 0 0
837 1 1 0 646.0059382370993 684.1479741414933 658.2258332120788 0 0 0
319 1 1 0 645.1311511100402 678.7440277137694 676.5474219113702 0 0 0
320 1 1 0 669.6123137464095 651.914631868161 666.1227104808058 0 0 0
321 1 1 0 648.6159513963183 673.1592966789749 649.0804740066691 0 0 0
322 1 1 0 648.036028186962 664.8433782122338 661.5611012340904 0 0 0
323 1 1 0 654.9443990822028 661.2421680725874 647.1149591344604 0 0 0
324 1 1 0 676.4244481086408 645.1272025455047 649.6077609200988 0 0 0
325 1 1 0 670.1171960772796 680.3733715215164 682.7488601606673 0 0 0
326 1 1 0 645.0026394569409 681.0145161133894 682.5098448468926 0 0 0
219 1 1 0 646.5827593718365 646.0256882375268 682.5128709091899 0 0 0
328 1 1 0 669.1301882202713 662.3764786208513 645.6022140697314 0 0 0
329 1 1 0 671.2394763610829 647.8473037275713 660.735806736106 0 0 0
330 1 1 0 653.6890242801728 669.4403171729575 676.7070436588049 0 0 0
331 1 1 0 670.0033881448958 653.6261340769628 662.2096490326375 0 0 0
332 1 1 0 666.1019140712048 663.9512493356726 645.6267146226774 0 0 0
333 1 1 0 655.8882485833273 669.7712623271789 674.8480423862557 0 0 0
334 1 1 0 682.2965027324886 650.6935410925977 682.9761556996647 0 0 0
335 1 1 0 648.0016724170902 675.3645563555305 647.9690143800964 0 0 0
336 1 1 0 670.8453372252394 648.6113535210126 665.591511504883 0 0 0
337 1 1 0 671.4281220469976 667.1316907629446 646.6615381870514 0 0 0
338 1 1 0 681.8252057483897 679.2218820464864 679.2825819772493 0 0 0
339 1 1 0 674.6838601590754 647.5084549437422 656.3002351955294 0 0 0
340 1 1 0 670.2748993410214 652.2824193792466 662.6210499066523 0 0 0
341 1 1 0 665.4880569146533 650.7348344935774 660.0413151823691 0 0 0
342 1 1 0 649.3426653945829 671.9954799882706 648.5923628943206 0 0 0
343 1 1 0 654.5246565759301 670.7566694606044 676.6525598110751 0 0 0
344 1 1 0 669.585428681273 645.2644983685879 680.7423491435828 0 0 0
55 1 1 0 683.8221513930448 683.564279811601 676.8642067114475 0 0 0
346 1 1 0 646.022698127821 671.5756752700926 658.8516907292317 0 0 0
347 1 1 0 648.9915189603636 664.9403192521571 660.551730032957 0 0 0
2338 1 1 0 644.8953949125079 644.0494259257989 648.6618765633885 0 0 0
1908 1 1 0 643.656896405462 647.7566971444721 683.9834086046316 0 0 0
350 1 1 0 683.350268053 653.1096095987924 649.6031716443067 0 0 0
351 1 1 0 682.0257965754303 653.2330818096104 649.0130183995661 0 0 0
352 1 1 0 680.869999886078 652.5451166758402 649.4450078626144 0 0 0
353 1 1 0 679.7918073630577 652.5893909932049 648.5225078930949 0 0 0
354 1 1 0 678.5184189393647 651.9821086101284 648.6038392030699 0 0 0
355 1 1 0 676.7958603597738 653.8192203543219 648.6838726433369 0 0 0
356 1 1 0 655.7869686648713 668.5624269832824 649.7531419536958 0 0 0
357 1 1 0 681.8990118056433 648.8625303326025 678.6407650083502 0 0 0
358 1 1 0 668.9464941129617 644.8207308280146 681.9266943706208 0 0 0
359 1 1 0 667.1291277415505 649.3806856868732 664.2534382256533 0 0 0
1312 1 1 0 644.811918585002 644.3524103039412 682.7940025088516 0 0 0
361 1 1 0 667.9798036964496 653.2468318920969 659.0283092103947 0 0 0
362 1 1 0 654.3500071708601 668.3802871190658 675.9190002444217 0 0 0
363 1 1 0 657.9933077022628 676.9054208889412 645.5583278398917 0 0 0
364 1 1 0 664.6636435081493 682.3528077899676 651.1484497059128 0 0 0
365 1 1 0 646.6090988531205 682.2669337139082 673.5719882071513 0 0 0
366 1 1 0 670.4657672632908 653.0171533570168 658.2591001933586 0 0 0
367 1 1 0 680.3178699462767 658.2899344619666 647.8271909043136 0 0 0
368 1 1 0 678.5839169388686 656.2064725964972 647.0681744033014 0 0 0
369 1 1 0 678.7926895243286 655.117786631296 645.9339920903548 0 0 0
370 1 1 0 676.5831597042572 653.783812135105 645.7805031639947 0 0 0
371 1 1 0 676.9622836549389 654.5113198302384 644.5795315018787 0 0 0
372 1 1 0 675.7686926183584 654.5980374283749 646.561931647365 0 0 0
373 1 1 0 674.9832116750993 655.6659248024868 646.0950506802153 0 0 0
374 1 1 0 681.7752879225361 654.4985107925231 648.46765491713 0 0 0
375 1 1 0 677.4820766064297 652.7313782050654 647.9536231063513 0 0 0
376 1 1 0 676.4764084881687 654.8509090975026 647.8063320311672 0 0 0
377 1 1 0 676.3226390619136 654.1825651409655 649.9958109354269 0 0 0
378 1 1 0 682.6118090633843 655.5869912991756 648.7687115934488 0 0 0
379 1 1 0 682.0468873869735 656.8300531594883 648.3724234274697 0 0 0
380 1 1 0 680.5866869623088 654.6827105482864 647.7479868684013 0 0 0
381 1 1 0 680.7046387400082 657.033931866455 648.0449596830317 0 0 0
382 1 1 0 679.9466028871157 655.9355556885275 647.7586111952687 0 0 0
383 1 1 0 679.8472673457034 653.5978810833003 647.4315185221523 0 0 0
384 1 1 0 678.9128961751899 653.829130974775 646.4365899638457 0 0 0
385 1 1 0 677.6639374446879 653.1488053050499 646.5515075730409 0 0 0
386 1 1 0 683.3640658520023 660.2643145588886 648.1838472977406 0 0 0
387 1 1 0 682.4875307933037 659.1774430176014 648.3061884353745 0 0 0
388 1 1 0 651.8875013666585 659.0967059718071 647.5862955663139 0 0 0
389 1 1 0 655.1454635359236 668.580724100547 674.7503891206052 0 0 0
390 1 1 0 645.5725413165433 676.9999820943974 653.2207030873196 0 0 0
391 1 1 0 678.924549275144 671.7441263800871 649.2022650705509 0 0 0
5470 1 1 0 659.1285240217898 684.4788782812664 646.0230298905161 0 0 0
393 1 1 0 666.7616153206354 648.7639060307672 659.7915826965964 0 0 0
394 1 1 0 652.9460715911833 654.3118732571778 645.5919032113176 0 0 0
395 1 1 0 681.9670727533794 683.2934650092691 683.0163501221106 0 0 0
396 1 1 0 666.1996131068469 645.9428174612708 659.051873263536 0 0 0
397 1 1 0 671.299443951132 652.5577103585631 660.5024627367458 0 0 0
12204 1 1 0 643.5296355140503 660.7449794276729 663.0791810251383 1 0 0
399 1 1 0 682.95165991871 657.8793345875256 648.3086800666224 0 0 0
400 1 1 0 673.1857501601281 662.7829715368842 645.5507992521706 0 0 0
2328 1 1 0 653.5111187149532 667.3541312193498 684.1937376227143 0 0 0
402 1 1 0 670.9229828159507 649.310041170947 680.5766534910902 0 0 0
403 1 1 0 666.3174945163519 663.3887275785434 644.3115720994801 0 0 0
404 1 1 0 666.7141612148613 682.7795677478526 652.4989727141009 0 0 0
405 1 1 0 664.7175757552387 672.0188585928234 683.7289905949383 0 0 0
406 1 1 0 666.8429655628893 681.4518037248594 644.9713820576854 0 0 0
407 1 1 0 652.4056866680265 669.9601302345606 655.7636788727733 0 0 0
408 1 1 0 650.7389406856704 671.7741687156233 650.6837933784002 0 0 0
409 1 1 0 650.2499852975154 671.2967690326835 649.3583788286627 0 0 0
410 1 1 0 650.2227291759062 670.6751814256062 651.625191321173 0 0 0
411 1 1 0 651.0773701234092 669.641435889955 651.1969803166731 0 0 0
412 1 1 0 652.2642001695453 670.5247059022415 653.3987414332771 0 0 0
413 1 1 0 652.4783121186107 670.0578779885597 651.9162167295101 0 0 0
414 1 1 0 652.3543225469776 669.5568419480225 654.3370202091112 0 0 0
415 1 1 0 651.7161436837575 668.3645263153737 653.9809360075812 0 0 0
416 1 1 0 650.7788416736288 670.1143027680043 648.8350855576188 0 0 0
417 1 1 0 650.9204410296181 669.8084746387063 647.4514384916806 0 0 0
418 1 1 0 651.1681638871235 669.1647304948136 649.8144200369544 0 0 0
419 1 1 0 652.141936880573 668.2960551209327 649.4205309421591 0 0 0
420 1 1 0 652.6538947239353 668.5329422579604 651.7785373487591 0 0 0
421 1 1 0 653.2822266909496 668.0938339276538 650.4195872205927 0 0 0
422 1 1 0 652.0909790133663 667.7834026496237 652.750770176218 0 0 0
423 1 1 0 652.1474130868214 666.4116736830882 652.7933828528049 0 0 0
424 1 1 0 651.9472326607281 665.7604196096169 654.0729083017293 0 0 0
425 1 1 0 651.4569611436152 668.4872959959496 647.0382868928074 0 0 0
426 1 1 0 651.1363337635604 668.1033123462861 645.6374812501824 0 0 0
427 1 1 0 652.1550082182506 667.6630994779925 648.1254877330991 0 0 0