LAMMPS data file via write_data, version 2 Aug 2023, timestep = 50000, units = metal

4560 atoms
1 atom types

649.6219236222452 714.5580763777508 xlo xhi
650.2072366611574 714.6817633388512 ylo yhi
649.6661325497683 715.2228674502402 zlo zhi

Masses

1 12.0107

Atoms # full

1 1 1 0 663.3327783726882 661.4079585900989 664.7915904621004 0 0 0
846 1 1 0 668.554952875302 660.1976425258765 652.3470959172812 0 0 1
519 1 1 0 672.3690548431342 653.4046662669718 664.6645419293254 0 0 0
1485 1 1 0 680.903199346592 650.606626590423 656.2213239896106 0 1 0
392 1 1 0 652.9118440653722 663.5209476747646 662.7386763562738 0 0 0
463 1 1 0 654.0697302804683 659.7498404766641 663.0579192579244 0 0 0
483 1 1 0 674.3995451460393 651.1777168322334 668.7905050778509 0 0 0
1980 1 1 0 678.0381480339404 675.3476481125275 681.0747928037313 0 0 0
2499 1 1 0 673.604855734042 679.089059961437 680.246161202436 0 0 0
405 1 1 0 663.7134311882857 660.5997041670256 665.9029159052837 0 0 0
224 1 1 0 661.0991105724823 655.387126585196 670.0094849093484 0 0 0
15 1 1 0 652.8761869181053 655.2678017407628 677.5952959675619 0 0 0
2392 1 1 0 677.4027980514754 678.8435092932106 680.9722230802952 0 0 0
461 1 1 0 661.3664008722014 654.9349209781997 665.9988186728535 0 0 0
472 1 1 0 653.5421903690179 660.9910812774457 663.6761150569673 0 0 0
373 1 1 0 654.172995261411 662.9215620349989 662.477498376876 0 0 0
465 1 1 0 659.0194953276115 654.7660546183714 666.7585240051378 0 0 0
345 1 1 0 679.2178687414181 653.6401440214565 656.917467991762 0 0 0
1938 1 1 0 680.4753274267516 652.4485574646419 661.4573041876464 0 1 0
2411 1 1 0 674.8470111004027 680.9560420961595 679.3998950690534 0 0 0
464 1 1 0 667.2839200692895 655.5245862810185 667.7958544706744 0 0 0
28 1 1 0 680.8187822414837 650.2972561511754 663.6706384556555 0 0 0
280 1 1 0 678.219189972068 653.1570755547699 666.1445335914265 0 0 0
1313 1 1 0 678.2420102041996 652.0802480091439 660.4243810929287 0 1 0
108 1 1 0 679.9550997637867 654.3373191982719 658.6365681192977 0 0 0
254 1 1 0 653.0737571592192 660.4115577123788 660.9064976726094 0 0 0
442 1 1 0 665.0697353028936 656.3428417453376 667.339329039412 0 0 0
447 1 1 0 670.0304218811658 653.4722160374664 670.1279409109592 0 0 0
844 1 1 0 668.379676264215 657.8926029697476 652.1190480432498 0 0 1
219 1 1 0 657.5027307550886 655.1871431881591 669.9698646568428 0 0 0
31 1 1 0 662.2805068898164 657.4808073726006 663.0111217946509 0 0 0
2044 1 1 0 678.2576837004268 676.6555638257267 681.4239727444163 0 0 0
1927 1 1 0 678.3973142138728 652.1213343852842 658.8790151187798 0 1 0
64 1 1 0 652.6239066724618 655.378739476741 678.9567767639794 0 0 0
1926 1 1 0 651.3218503494319 655.3924189556923 679.5849074697629 0 1 0
443 1 1 0 672.1463054406806 654.3291996040947 667.2741598603498 0 0 0
1040 1 1 0 667.26181267443 651.1595458873453 652.5163580686365 0 0 1
102 1 1 0 679.1579198995419 654.2494435688537 660.822750952796 0 0 0
2508 1 1 0 676.9058438666126 681.0434954882464 678.2475786548941 0 0 0
441 1 1 0 664.4815161164624 659.3980142943121 665.4267829127651 0 0 0
109 1 1 0 677.573634154101 654.5984715500543 658.502026837815 0 0 0
118 1 1 0 673.9769582332037 665.0429642389045 653.3393067143412 0 0 0
57 1 1 0 667.4577974424884 653.2217974989543 664.9466993099524 0 0 0
105 1 1 0 681.8537918837508 653.3899973790288 659.7313362611019 0 0 0
454 1 1 0 660.1256832893454 655.5183998136155 666.3431344017052 0 0 0
1925 1 1 0 650.2377134152986 655.1112201521315 678.7005132162027 0 1 0
408 1 1 0 679.492200901219 653.1379012863222 665.5632436447763 0 0 0
113 1 1 0 679.5570021895214 655.085641587401 657.3627311823423 0 0 0
419 1 1 0 663.8273359438114 656.6693381707702 667.8388867064867 0 0 0
433 1 1 0 657.997755089858 655.4690218989869 667.379440888801 0 0 0
864 1 1 0 670.7005421268775 661.3387697907629 652.1322563827354 0 0 1
428 1 1 0 665.9906950051405 655.716142823246 668.2134843890669 0 0 0
2474 1 1 0 676.9761982090438 679.7603437189005 678.7605411948487 0 0 0
539 1 1 0 668.7827368752204 651.1136671658425 673.359069724691 0 0 0
1902 1 1 0 678.220550489691 653.1589041947558 657.9428995360419 0 1 0
417 1 1 0 660.2636008055791 656.7451965080685 667.0541635072265 0 0 0
1740 1 1 0 679.4962529566354 650.4913964643339 660.2564645890373 0 1 0
451 1 1 0 663.330430259385 652.290869068586 667.9252940197289 0 0 0
2410 1 1 0 677.5367049534914 681.1696905536292 676.9446065645566 0 0 0
107 1 1 0 678.8544019315478 654.3339045229923 659.4477968463591 0 0 0
208 1 1 0 671.2198644849809 651.3000332934453 664.670924717179 0 0 0
2259 1 1 0 673.9139842582807 679.4101886618245 681.6211007562024 0 0 0
2497 1 1 0 673.7027848311983 677.6808503929685 679.9385659514286 0 0 0
2421 1 1 0 674.4567864669675 679.9302458200114 676.8264748825314 0 0 0
214 1 1 0 658.5579054574924 654.6006120115804 670.7310050066031 0 0 0
401 1 1 0 662.4790342064434 659.8604575850345 663.189518443575 0 0 0
67 1 1 0 663.3160102405593 657.0008357849957 662.1527434674274 0 0 0
68 1 1 0 665.2588142994351 657.3798104355237 660.8646920492976 0 0 0
69 1 1 0 666.2147705839785 658.3143846854316 660.4210714468483 0 0 0
838 1 1 0 667.072024204627 656.3218009505167 650.9126706863958 0 0 1
71 1 1 0 663.8942781869367 658.4164045232407 664.572949562247 0 0 0
72 1 1 0 663.0922067285856 660.0563894305218 661.936388370981 0 0 0
73 1 1 0 666.4096176024627 660.1558372445844 661.6730257532744 0 0 0
74 1 1 0 666.0878298340608 661.2904581641948 662.712429676333 0 0 0
75 1 1 0 664.5277168644736 656.5594847356933 662.8890997499561 0 0 0
76 1 1 0 665.642171276293 656.4377976990868 661.9153053026605 0 0 0
77 1 1 0 667.5902105946863 658.2631825938655 660.9689303293848 0 0 0
78 1 1 0 664.8173131488328 657.4739993440595 663.9906006180439 0 0 0
79 1 1 0 666.0983693614525 657.9857534839645 663.8115861142651 0 0 0
80 1 1 0 667.0428210726486 656.4640165833196 662.3604682583803 0 0 0
81 1 1 0 667.2082173789391 657.1057828898756 663.6388656598688 0 0 0
82 1 1 0 668.0625514755114 656.9889431096441 661.4563690010509 0 0 0
83 1 1 0 669.3729729706494 656.8634637975177 661.9669436124336 0 0 0
84 1 1 0 666.1840378887616 659.2681971977978 663.0485989346599 0 0 0
85 1 1 0 667.8948531817364 659.5328942030609 661.6812396909789 0 0 0
86 1 1 0 668.4227348325345 657.7678159246235 663.9497135955658 0 0 0
87 1 1 0 668.106313356682 659.1276670623449 663.9706771165016 0 0 0
88 1 1 0 669.6700934954268 657.5005580719601 663.2450550982958 0 0 0
89 1 1 0 670.6888628365475 658.4953913330013 663.427662237818 0 0 0
182 1 1 0 659.8434962490261 651.0853710018672 668.508887533478 0 0 0
371 1 1 0 660.9624656918205 654.033511793112 670.4488211408728 0 0 0
841 1 1 0 667.1371926393422 658.5396792563145 651.5884892449567 0 0 1
1215 1 1 0 669.0414342517374 672.7851981442847 649.7299072755897 0 0 1
866 1 1 0 671.7161819225075 662.4369355924072 649.6703916222144 0 0 1
424 1 1 0 657.4923207201376 654.8829062042347 668.5707332672999 0 0 0
453 1 1 0 668.2235507022853 654.8875227089442 668.6578271091017 0 0 0
2097 1 1 0 675.4219027305206 676.2501587843373 680.7978917392918 0 0 0
1308 1 1 0 672.2070104533123 652.2430520062139 670.3141049220683 0 0 0
2068 1 1 0 675.8003441387326 679.3656194193803 676.6946410412764 0 0 0
1154 1 1 0 671.320155869731 650.7319865598807 672.3851722057045 0 0 0
1709 1 1 0 650.5712552057249 654.8044765045158 677.3526715226737 0 1 0
14 1 1 0 674.7553148367867 653.4548110089673 664.7874142174502 0 0 0
2075 1 1 0 673.7552641599374 677.0937004539992 682.2836868485045 0 0 0
462 1 1 0 660.3159211348656 650.3955677975742 669.6614345285705 0 0 0
491 1 1 0 675.5767920897833 653.0358515177004 667.0151258579173 0 0 0
857 1 1 0 667.9507487445052 661.8127450951265 650.0034311451839 0 0 1
977 1 1 0 669.6636096945541 653.4615987832204 652.6198563856065 0 0 1
848 1 1 0 667.802762475714 662.6671967711553 651.1750756927142 0 0 1
2407 1 1 0 674.260005841601 677.4088610121752 678.670265726595 0 0 0
423 1 1 0 662.6892052432804 656.8348173363468 666.9804615887524 0 0 0
111 1 1 0 680.732785630477 656.1771563165562 660.3001585447867 0 0 0
523 1 1 0 656.1770303417369 653.0528182509798 669.4159777315692 0 0 0
1065 1 1 0 666.3484647595731 654.0053727453469 649.6999588538393 0 0 1
2020 1 1 0 676.5641324631273 680.5712469148159 676.0804457441742 0 0 0
115 1 1 0 679.6632073002444 657.0792093386892 660.052374482775 0 0 0
116 1 1 0 681.3585146485144 656.6369813558181 657.8820848527502 0 0 0
117 1 1 0 680.7579215381396 655.7947741306808 656.785071371476 0 0 0
1024 1 1 0 669.0411818463805 652.3038550140243 654.7141453035429 0 0 1
119 1 1 0 679.1453100265051 657.125453707819 658.6623671155585 0 0 0
120 1 1 0 678.4404672726703 655.9307604252645 658.1257539176595 0 0 0
121 1 1 0 680.1711160556383 657.5305371015143 657.633983005597 0 0 0
122 1 1 0 679.9783550445803 657.7595550424247 656.2100488919276 0 0 0
123 1 1 0 680.8265467435566 655.5275919040807 655.3214949404306 0 0 0
124 1 1 0 680.0332826232892 656.8176915827661 655.1794572840951 0 0 0
221 1 1 0 663.3146900935343 655.8238201690704 668.8808101934598 0 0 0
847 1 1 0 669.3032570863094 661.3927467845668 652.5023669386424 0 0 1
981 1 1 0 666.9099978178762 655.2905319013073 649.8722770737168 0 0 1
128 1 1 0 664.4405707520689 659.8795978085159 660.0400599292904 0 0 0
129 1 1 0 663.4849606873231 659.2383831096006 660.8665857379206 0 0 0
130 1 1 0 665.7679902255629 659.673842741763 660.4016317172943 0 0 0
131 1 1 0 663.8238914194391 657.8265552005785 661.0002525140444 0 0 0
132 1 1 0 670.7932448240139 659.8644899467569 663.5510876334699 0 0 0
133 1 1 0 668.6030097816499 659.8539512827903 662.8345384936869 0 0 0
134 1 1 0 669.6469618154224 660.6905598576938 663.3247017940448 0 0 0
135 1 1 0 666.8615084765747 661.1305744214775 663.8501098205836 0 0 0
311 1 1 0 652.4951885289678 654.1282293937785 674.3602160228523 0 0 0
1932 1 1 0 651.7673376172916 656.0316767224646 682.0833470198418 0 1 0
982 1 1 0 668.2921039806492 656.4995392259772 651.7531137750052 0 0 1
228 1 1 0 666.8086472213296 652.4154524485953 671.6041548054048 0 0 0
140 1 1 0 665.8605189648993 659.7548360164524 665.6595294840926 0 0 0
141 1 1 0 666.766091619051 659.7378649652466 664.5136509958918 0 0 0
142 1 1 0 665.9876739816316 661.0046365824311 666.4122186732911 0 0 0
143 1 1 0 664.6062684706974 661.19194664583 666.8899465581313 0 0 0
976 1 1 0 669.6306175377667 652.0059876932773 652.3447960540605 0 0 1
145 1 1 0 658.9071019271221 663.372468124948 665.5825805962882 0 0 0
146 1 1 0 658.0451959619179 664.072635747264 664.6604795718167 0 0 0
147 1 1 0 660.3225298102019 663.561479535513 665.4334000094956 0 0 0
148 1 1 0 658.4679936950789 662.0459062025782 665.9078731844048 0 0 0
149 1 1 0 656.5363778872401 661.0658084629014 664.7388747643223 0 0 0
150 1 1 0 656.0354621447866 659.7280057037229 664.6456074522185 0 0 0
151 1 1 0 656.9826224890518 658.7388851369576 663.8914916066759 0 0 0
152 1 1 0 657.9791119333985 661.070843994368 665.0125237527524 0 0 0
153 1 1 0 658.791289390877 660.3690098584491 664.0664572920517 0 0 0
154 1 1 0 661.0060539844847 661.6943494672557 663.8605295616777 0 0 0
155 1 1 0 659.770555329489 661.1385054670386 663.3434840286067 0 0 0
156 1 1 0 660.8807606765337 663.1203581406778 664.1857776568306 0 0 0
157 1 1 0 660.2956657071843 663.8649767014425 663.0696447189667 0 0 0
158 1 1 0 658.0503858678065 659.4500447934637 663.2116134966143 0 0 0
159 1 1 0 659.1388316979713 661.9324536369946 662.2995465968269 0 0 0
160 1 1 0 659.046949877715 663.3322641390794 662.6252030000505 0 0 0
161 1 1 0 655.9368351859331 657.9485281151929 663.0157598084389 0 0 0
162 1 1 0 656.2436009707368 658.0613543574188 661.6618610979308 0 0 0
163 1 1 0 655.0232980561976 658.9814140439065 663.740096496388 0 0 0
164 1 1 0 657.7247497639105 659.9441335044091 661.9187277516113 0 0 0
165 1 1 0 657.9968110059212 661.3312091845414 661.6870088887671 0 0 0
166 1 1 0 657.8494414015851 663.5943537295648 663.3842910082265 0 0 0
167 1 1 0 656.5980190987214 659.3800201628079 661.2662011315961 0 0 0
168 1 1 0 655.4962649129374 660.2422416293105 661.088833767277 0 0 0
169 1 1 0 656.8424272275672 662.1619901462706 661.6949497868151 0 0 0
170 1 1 0 655.6706101267143 661.6589893130715 661.0687919159163 0 0 0
171 1 1 0 656.7374397615607 662.8094383974557 662.9730238259835 0 0 0
172 1 1 0 655.8935139979469 662.0840658657547 663.9119011129048 0 0 0
1502 1 1 0 680.1750352235828 653.1411822765131 656.0106447437711 0 1 0
1949 1 1 0 673.6154666230864 679.4272776297319 677.8134512270016 0 0 0
430 1 1 0 668.7221862480707 654.9627125525783 665.9450081931643 0 0 0
204 1 1 0 661.5597298341642 653.643464969394 666.5793432111019 0 0 0
1131 1 1 0 667.783411629987 672.0997430081944 649.781223900337 0 0 1
1857 1 1 0 651.8090459276627 654.9041469987432 676.6722440602779 0 1 0
1929 1 1 0 650.9876647654971 655.7943722960955 680.9266831010108 0 1 0
2077 1 1 0 676.3437351409171 678.7167739826824 677.9666069579533 0 0 0
400 1 1 0 666.2262619622206 653.8653981339589 665.2184829420305 0 0 0
1330 1 1 0 651.6001163526294 654.356140066445 675.3088870581788 0 1 0
2430 1 1 0 677.4466864411111 677.5176724005962 680.5840420045787 0 0 0
507 1 1 0 673.4493923891016 654.0419527687031 666.7071273941169 0 0 0
5 1 1 0 663.8349066309587 655.1431711875937 665.6001668947492 0 0 0
479 1 1 0 670.495727584101 654.1705668615392 669.0174662099074 0 0 0
522 1 1 0 658.1660198164577 652.6987134801675 667.7359647953348 0 0 0
969 1 1 0 668.6533957988802 662.6185622706975 652.3483241725919 0 0 1
189 1 1 0 666.505155597574 662.1101535378832 665.5504237849661 0 0 0
190 1 1 0 665.4254577046746 662.7922483323308 664.8481902251234 0 0 0
191 1 1 0 667.8620677169857 661.9517565151899 664.6295148453149 0 0 0
192 1 1 0 669.1680453564252 661.7654113178717 664.1168767462617 0 0 0
42 1 1 0 673.5401443274777 653.8392099568649 665.3069541410691 0 0 0
104 1 1 0 680.4345997619391 654.9100699012319 661.0966088909958 0 0 0
459 1 1 0 662.5922003078169 655.7427969914748 665.9217561661894 0 0 0
265 1 1 0 651.8050036619289 662.6442337500787 662.8699612687029 0 0 0
101 1 1 0 679.1462551308153 652.902757771891 661.2118756574831 0 0 0
983 1 1 0 672.5217358217542 666.7654824613775 652.7455321794802 0 0 1
1023 1 1 0 670.2751205095718 651.4958123719396 654.574539191868 0 0 1
876 1 1 0 669.0689631529938 670.1065930412562 649.9942439197617 0 0 1
1025 1 1 0 668.1258405595491 650.4640355596705 656.0120970278296 0 0 1
2076 1 1 0 674.1208128375428 676.8782584771604 680.9959986572774 0 0 0
1008 1 1 0 669.5690686061953 664.797797492665 651.8718996117262 0 0 1
985 1 1 0 671.3020702028671 665.9606690283362 653.089911152177 0 0 1
125 1 1 0 681.0378871310985 654.0833852992787 655.2674579481128 0 0 0
2378 1 1 0 675.744468778592 677.5062240473412 678.6279165249285 0 0 0
2439 1 1 0 676.7967177943945 679.8004473804574 680.1869462058867 0 0 0
312 1 1 0 679.7352779144592 652.3216022157932 664.4084717854281 0 0 0
236 1 1 0 664.4698006660259 652.7369501090457 670.5906587665529 0 0 0
2037 1 1 0 675.5378722389107 681.5241007238169 678.2719915873879 0 0 0
2377 1 1 0 675.7195301511169 675.1785527536034 681.7547135521037 0 0 0
456 1 1 0 680.9532734562703 651.7033369963001 664.0406249576087 0 0 0
918 1 1 0 669.3561554616923 663.7667116933782 652.8395635425743 0 0 1
873 1 1 0 670.2967946250483 668.2063466458234 650.631995172554 0 0 1
494 1 1 0 667.4687194097852 655.4206703153257 666.4339326714945 0 0 0
1135 1 1 0 664.0520932304512 651.2108598544245 672.529323350232 0 0 0
257 1 1 0 650.6434165729861 660.105997361925 660.4283004274071 0 0 0
391 1 1 0 673.8648517191715 650.3588041375627 665.0421426280136 0 0 0
421 1 1 0 667.7367762411587 654.2094931487995 669.7731019811729 0 0 0
239 1 1 0 665.4450808576919 654.7935203403104 669.1351920808171 0 0 0
429 1 1 0 656.0803154490392 652.0150641219541 671.5667965708166 0 0 0
347 1 1 0 678.5444098970578 651.752373058929 663.8348695880736 0 0 0
275 1 1 0 662.1358702886108 651.3031561937869 667.9642833549866 0 0 0
872 1 1 0 670.3814715634051 666.8660096906764 650.9868853194657 0 0 1
136 1 1 0 671.1686740494265 653.909962249108 665.106493737793 0 0 0
43 1 1 0 673.6939773165169 666.4331462454151 653.5130816741218 0 0 0
237 1 1 0 666.3276670996818 654.0499307041413 669.9136803996089 0 0 0
526 1 1 0 669.8580461716598 654.9767103229497 666.8301876210019 0 0 0
845 1 1 0 669.3562022729176 658.9570582578721 652.1743644828714 0 0 1
975 1 1 0 670.3732414480671 651.1421635395395 653.1896324200577 0 0 1
418 1 1 0 656.2061485425663 655.1727316899677 670.5343403750443 0 0 0
1054 1 1 0 665.8241671651028 651.61413802495 650.6096185179422 0 0 1
480 1 1 0 665.0839148361763 655.8395499073872 665.998055837957 0 0 0
2381 1 1 0 675.5655871819993 681.8264905551856 675.6831261246268 0 0 0
1113 1 1 0 671.6327174711408 664.579313375875 653.390186438341 0 0 1
230 1 1 0 661.8835326873696 656.0942056226462 668.9758352672508 0 0 0
106 1 1 0 681.375769638193 654.4875045115828 658.9661753735769 0 0 0
238 1 1 0 659.1250325182443 657.5288009056637 667.1489829933635 0 0 0
2423 1 1 0 675.697173804869 680.6165393273258 680.5784152654065 0 0 0
240 1 1 0 661.4952227650997 656.8669054547996 667.7876987842917 0 0 0
241 1 1 0 657.9184255271118 656.8493805235948 667.1257425737372 0 0 0
2356 1 1 0 673.4541946049698 678.0224800230317 677.7167888870378 0 0 0
227 1 1 0 664.0553497632524 654.6902537254093 669.2201102899718 0 0 0
319 1 1 0 664.7729813565412 661.7017240510246 662.8329007116024 0 0 0
381 1 1 0 666.478031522127 651.1467947707049 665.8922161589425 0 0 0
927 1 1 0 670.1845197039014 666.0708425926691 652.1665368708949 0 0 1
496 1 1 0 671.7596819593343 653.8519290772925 668.555159938774 0 0 0
1037 1 1 0 669.2394084245808 653.6112851547642 654.0284241229465 0 0 1
484 1 1 0 660.2874328873748 651.1973463228938 670.8923076466217 0 0 0
2258 1 1 0 677.0129271714081 674.5163983788312 681.6949553794486 0 0 0
251 1 1 0 654.4278323246984 662.3920948984646 661.1437666448652 0 0 0
521 1 1 0 655.1865666218296 653.1897287194892 671.575727705802 0 0 0
249 1 1 0 652.117630226747 662.4443832857874 660.0963406298686 0 0 0
2454 1 1 0 673.8420837818601 679.9626519146112 679.142410127978 0 0 0
255 1 1 0 654.1976774565368 659.8555121047956 661.6084534905102 0 0 0
3 1 1 0 663.8425650914928 653.738215283467 665.7986672147131 0 0 0
1039 1 1 0 667.4499764519815 650.624457083322 653.7688527815183 0 0 1
305 1 1 0 675.842032727224 653.4447792457659 665.6989389126027 0 0 0
851 1 1 0 667.3485594504932 659.9995412631491 651.5104132838102 0 0 1
1112 1 1 0 672.7423831800493 666.8614266714711 651.3053308096381 0 0 1
261 1 1 0 662.2128661287713 661.0025693500244 663.9662576693266 0 0 0
1026 1 1 0 667.9908515184599 651.2522242320122 654.8657113813541 0 0 1
859 1 1 0 671.0505595506177 660.4356635299491 651.1232540335311 0 0 1
1279 1 1 0 672.5683133701189 650.4508532412997 671.8722670134905 0 0 0
382 1 1 0 677.7577737107343 652.2163782009599 667.1849503819468 0 0 0
486 1 1 0 674.3233776463572 653.2596196848959 667.5056380062047 0 0 0
406 1 1 0 677.1702908368545 653.338278868983 665.1434349907046 0 0 0
1717 1 1 0 681.8959591059049 650.4842234320366 660.4462683207612 0 1 0
232 1 1 0 653.3964319774467 653.7632774081271 673.4879246493368 0 0 0
1012 1 1 0 669.4043903384992 650.4103105563507 656.541481985315 0 0 1
1377 1 1 0 680.8859827700155 652.0031441903528 656.5410758826647 0 1 0
1101 1 1 0 672.9006728853337 664.3873550236041 652.6528134544395 0 0 1
409 1 1 0 664.4032978712343 662.1195227426153 664.1317333333557 0 0 0
346 1 1 0 676.0345028393157 651.6238330131516 663.8793657897482 0 0 0
250 1 1 0 653.2749696934254 661.7625412329867 660.4398791613111 0 0 0
2451 1 1 0 678.1933061534156 682.30147474319 676.5026061689892 0 0 0
338 1 1 0 677.3007021905642 652.4150524154896 663.9923094314098 0 0 0
439 1 1 0 662.8506862530883 653.1628730993032 666.5735137905276 0 0 0
420 1 1 0 668.690219364413 653.5322630812041 670.5627897373653 0 0 0
865 1 1 0 671.2696680318769 662.5828933327747 652.2109077751595 0 0 1
490 1 1 0 672.6165298678367 652.8771938764185 669.1826736536044 0 0 0
282 1 1 0 663.7497657496955 661.3251411184873 661.9466843186198 0 0 0
112 1 1 0 681.5186491566554 655.8707218979074 659.1186102648112 0 0 0
32 1 1 0 669.959739578293 653.2726490891331 664.7183121157259 0 0 0
493 1 1 0 666.2866033193474 655.1817029827968 665.6624472634613 0 0 0
286 1 1 0 662.6785666016746 658.6033148393585 663.7890841008951 0 0 0
323 1 1 0 654.5547183588341 662.0417024959971 663.5796160875442 0 0 0
259 1 1 0 650.0048036607117 661.3607485781586 660.2889802630599 0 0 0
1006 1 1 0 672.2916682775218 665.6440660357944 650.6610907879409 0 0 1
1010 1 1 0 670.498858319817 650.6128606792297 655.6593102535328 0 0 1
477 1 1 0 669.5326616377807 654.6592580874243 668.1523788150681 0 0 0
1116 1 1 0 670.7356912724758 663.4796297913755 653.2252303886941 0 0 1
475 1 1 0 651.4567966787522 660.2133744382471 662.6890349648021 0 0 0
202 1 1 0 668.6936755337478 653.8795375852039 665.0481828768408 0 0 0
2418 1 1 0 676.3053264636932 676.9917998697626 679.8992968783846 0 0 0
481 1 1 0 671.1417971702442 654.713814949231 666.313739738964 0 0 0
248 1 1 0 650.8491592681768 662.4376810556945 660.6483169109453 0 0 0
103 1 1 0 681.371621738669 653.6018747175779 661.0565739430749 0 0 0
1053 1 1 0 666.0828984340927 650.8665185920186 651.751126000399 0 0 1
95 1 1 0 674.7616113402345 652.2234043090261 663.9927446285316 0 0 0
2100 1 1 0 674.8413945060156 681.3270397146474 676.9571653670253 0 0 0
1309 1 1 0 650.1886557143702 653.9539423578599 675.220090677693 0 1 0
525 1 1 0 673.8006980390763 652.4625323343222 668.5141532389755 0 0 0
342 1 1 0 668.8007706415052 651.1503588960388 665.0708814270508 0 0 0
1038 1 1 0 668.321286144066 651.8235800262438 651.8562525751587 0 0 1
869 1 1 0 672.5362802713829 664.3824992844588 651.2624550428901 0 0 1
842 1 1 0 669.4464597008545 655.6764583841496 651.4629051948041 0 0 1
1001 1 1 0 665.278931771857 651.18429084242 673.2570568001053 0 0 0
978 1 1 0 669.3965928924051 654.2770657181806 651.5009155818636 0 0 1
858 1 1 0 670.4319086915444 659.1401447410319 651.1770185108417 0 0 1
177 1 1 0 670.9780159765901 652.5358908325784 670.834611079502 0 0 0
840 1 1 0 666.7614836210987 657.6890459390428 650.4280802293761 0 0 1
867 1 1 0 671.4732929643321 663.3527570385551 650.9024293733783 0 0 1
530 1 1 0 660.8407636905666 651.7093089147129 667.7180822110428 0 0 0
234 1 1 0 663.4221845860694 653.2688916024558 669.3472628893551 0 0 0
229 1 1 0 665.8426011954754 653.0079934024121 670.7015164455906 0 0 0
1052 1 1 0 666.5030297520564 652.8588849545436 650.6044840761131 0 0 1
56 1 1 0 665.1247921028345 653.0734669080404 665.5681275307963 0 0 0
1110 1 1 0 670.107846475041 664.2429117037593 650.7055134024316 0 0 1
291 1 1 0 659.6612955955619 653.5799218053251 670.786993147578 0 0 0
1051 1 1 0 667.8572111028527 652.742038231859 650.9715596510306 0 0 1
1509 1 1 0 680.7210431966239 651.208239995203 660.886470604635 0 1 0
529 1 1 0 676.3438569051518 651.9471886292436 667.4876366321406 0 0 0
2429 1 1 0 675.1209338294653 680.1428335798024 681.8312748897287 0 0 0
253 1 1 0 651.754374150902 660.0131519499649 661.3024883355982 0 0 0
910 1 1 0 673.7758469021622 650.4511314481493 669.7661866099517 0 0 0
856 1 1 0 667.4545840115549 660.4576669405484 650.1320147950568 0 0 1
233 1 1 0 668.240657032566 652.6488945915813 671.4826994679703 0 0 0
2437 1 1 0 677.2925527105598 679.1087539833233 682.3506535730346 0 0 0
979 1 1 0 668.6768964736999 653.7095979023011 650.4565949571083 0 0 1
501 1 1 0 652.156558956475 661.2807479830154 663.3116562084113 0 0 0
272 1 1 0 662.1203174535152 653.2796075456604 670.422023198179 0 0 0
843 1 1 0 670.3339379398151 656.2773151713692 650.5024488847461 0 0 1
871 1 1 0 671.5995583910941 668.8105314546335 650.3222202163466 0 0 1
992 1 1 0 672.7751040897795 668.0016862321995 650.4163032344177 0 0 1
354 1 1 0 672.3620929636688 652.0576081763763 664.271804877003 0 0 0
1726 1 1 0 679.0425449146411 650.8062709080635 658.849884668492 0 1 0
252 1 1 0 650.7099525439985 662.8694074656934 661.9908013580775 0 0 0
874 1 1 0 669.1858115339242 668.7057331412982 649.9185718035137 0 0 1
350 1 1 0 675.5213235416876 650.8744493221542 667.9989074355201 0 0 0
495 1 1 0 659.2022618538698 653.3513124634891 666.9888440630239 0 0 0
440 1 1 0 655.5177172877906 653.9674802349082 670.4110323653958 0 0 0
1396 1 1 0 677.9864161758737 650.633466979716 660.8602750563626 0 1 0
1874 1 1 0 681.9481976033453 652.4083151482325 657.5427158238077 0 1 0
853 1 1 0 670.1358583375521 658.6031548370746 649.8771977721229 0 0 1
473 1 1 0 657.1583698328363 653.5203346763527 668.396149336428 0 0 0
1283 1 1 0 673.0765944477871 651.2616673642063 670.7949659189161 0 0 0
1303 1 1 0 669.1820773606255 651.8834059336716 672.241395526057 0 0 0
194 1 1 0 669.9534262504328 651.8982805303673 664.7166433050652 0 0 0
861 1 1 0 671.1735629023191 661.0773985162201 649.8275301443115 0 0 1
527 1 1 0 654.1239581214231 653.468280425526 672.4517155346269 0 0 0
8 1 1 0 660.5063441884565 652.834186160016 666.9481101396549 0 0 0
216 1 1 0 667.5368863127362 651.8461999469438 665.2633977277014 0 0 0
317 1 1 0 662.3499476989474 652.2724911625581 671.3791568850955 0 0 0
388 1 1 0 665.3655693826045 651.9019469224557 666.2498047296804 0 0 0
1002 1 1 0 670.5488205735658 651.8201352358536 671.9353693720936 0 0 0
303 1 1 0 673.665118701552 651.4510758944632 664.1670421570809 0 0 0
377 1 1 0 663.6998340257442 652.1764116163719 671.634341877615 0 0 0
513 1 1 0 659.278927500482 652.1694804676964 670.7405175313236 0 0 0
179 1 1 0 661.4887783252395 651.194441063917 671.5747886664869 0 0 0
220 1 1 0 664.6261193880925 651.4380353490602 667.4456806670777 0 0 0
386 1 1 0 656.7676303342835 652.0346677791338 670.276710580359 0 0 0
296 1 1 0 658.1443906283976 651.7744195263598 669.9626281389682 0 0 0
875 1 1 0 670.3666891959999 670.7846790008335 649.815007583561 0 0 1
504 1 1 0 658.5116976469571 651.5810350966924 668.5585164044354 0 0 0
222 1 1 0 666.4759723936315 651.5125487055868 672.6775272979941 0 0 0
1299 1 1 0 667.463905673898 650.6589148513455 673.1600428780858 0 0 0
263 1 1 0 676.1468363301299 650.450102272251 664.6636436333214 0 0 0
1005 1 1 0 670.9053778850131 665.9744582312309 649.7907043441433 0 0 1
22 1 1 0 678.4210502168356 650.316572160172 663.9248037533899 0 0 0
1893 1 1 0 682.0880539776408 652.2569416468854 658.9333813547133 0 1 0
1271 1 1 0 681.3236313532686 669.6923261767049 694.749164752682 0 0 0
855 1 1 0 669.4115566827578 659.5098725767774 714.6064016400385 0 0 0
2605 1 1 0 651.5695713513971 657.0218972558664 688.7400541082677 1 0 0
1100 1 1 0 651.52590725984 657.2238653043072 705.084491046859 0 0 0
2128 1 1 0 668.4091553795868 678.3934737324192 710.6568818133976 0 0 0
1227 1 1 0 663.2533325225289 654.7108689344024 701.0282352883274 0 0 0
3886 1 1 0 651.903499044843 653.4269606090974 686.676558511313 1 1 0
3094 1 1 0 651.1086786919091 669.3180218001592 693.2352524092545 1 0 0
3277 1 1 0 652.7980581157997 666.5247881356208 694.7380979563327 1 0 0
2202 1 1 0 663.8060768277908 677.054465894577 709.9431010275168 0 0 0
3098 1 1 0 652.6560094626611 668.4714613932357 696.6195056558664 1 0 0
3060 1 1 0 653.7379918265852 680.7612595922769 703.8109405463762 1 0 0
3048 1 1 0 653.3268710847344 679.1615524872352 702.0636733093719 1 0 0
589 1 1 0 650.6197187191751 656.1949671233455 704.9329784688888 0 0 0
2201 1 1 0 664.1087322946113 676.1669956486346 710.9887752866829 0 0 0
3158 1 1 0 653.0056417493277 661.2471727229183 689.6352894196582 1 0 0
1067 1 1 0 666.0262075122215 650.9187019437278 714.9528333111805 0 0 0
3253 1 1 0 655.9231086141688 681.7929438611687 704.6732369290528 1 0 0
854 1 1 0 668.001404411799 659.4155641887085 714.774347675817 0 0 0
1880 1 1 0 651.3191915112985 656.7337745600846 683.2431785954994 0 1 0
3160 1 1 0 650.1102906645497 674.6206008040297 694.4226396006138 1 0 0
3410 1 1 0 651.0672178736543 675.4947757914131 697.8753639018232 1 0 0
3251 1 1 0 654.7262498885196 681.8545463743759 703.887253072675 1 0 0
3093 1 1 0 651.3394852970067 667.9024320696026 693.4064166284578 1 0 0
743 1 1 0 655.6119007728512 681.1917950468371 687.4984606711992 0 0 0
1911 1 1 0 650.740225747663 652.8088760475861 686.1854100278553 0 1 0
2130 1 1 0 668.6857400522622 676.9759880229284 710.887530492896 0 0 0
3022 1 1 0 651.1812784162556 678.0842251048545 697.0452793054229 1 0 0
3033 1 1 0 650.4401676872928 678.9584332837433 700.7906701120194 1 0 0
821 1 1 0 652.4252394648231 655.0315751732098 702.696458582036 0 0 0
2262 1 1 0 666.2293724197579 677.4177914060757 709.8907442673587 0 0 0
3051 1 1 0 649.8635035634179 680.5989909296127 697.50617297064 1 0 0
1243 1 1 0 673.9517220661025 676.4730278018613 684.6482766017499 0 0 0
573 1 1 0 675.8229823784209 678.1345086257717 692.8747778315625 0 0 0
574 1 1 0 674.1565392043989 676.9001080868065 694.1674098222113 0 0 0
3023 1 1 0 652.4933964091952 678.5437491152652 697.7035670110596 1 0 0
936 1 1 0 677.3935901814915 673.6696608359358 685.1428964661111 0 0 0
3170 1 1 0 655.8892335141032 660.5001036562284 689.4123446765036 1 0 0
741 1 1 0 654.215209619737 681.0818962379901 686.6723760422917 0 0 0
579 1 1 0 675.4933401749122 675.4719413960444 691.746593258188 0 0 0
3066 1 1 0 656.8463523201663 666.2287147331831 690.6716532589824 1 0 0
581 1 1 0 678.7072929358859 676.665812823286 689.090959132694 0 0 0
2397 1 1 0 674.3382475142683 678.7080061750846 683.9883376676254 0 0 0
2065 1 1 0 671.3573735343269 674.5818708562307 711.7212498337557 0 0 0
3386 1 1 0 652.9694625522405 662.9097047554455 692.3662622573358 1 0 0
3024 1 1 0 653.5004393025907 676.6039766512431 696.7118608545278 1 0 0
586 1 1 0 680.7534274408788 670.4531462303476 693.841147435375 0 0 0
3484 1 1 0 651.8003114559406 654.8340841113404 686.9761534451256 1 1 0
1209 1 1 0 669.8204069607689 672.9494820065822 711.4200766057228 0 0 0
1143 1 1 0 652.7220704494218 657.3820814873284 700.0530608264336 0 0 0
3296 1 1 0 650.5749888760782 674.6779071962422 698.8718121641668 1 0 0
3064 1 1 0 657.3733586995681 664.4514084460866 692.50544616642 1 0 0
2293 1 1 0 673.7263717139799 678.4590083816428 682.7297523562669 0 0 0
593 1 1 0 681.7254481839262 671.5898377160519 696.6399412620876 0 0 0